275.5025 0.00025 4.53605 3.96483 3.67094 3.19431 3.22486 3.16948 3.13734 3.18669 3.28529 3.35993 3.38635 3.32687 3.13789 2.96071 2.92443 2.97981 2.97816 3.00841 3.02774 3.08242 3.11118 3.10427 3.02147 2.93354 2.92122 2.91775 2.98505 3.02111 3.03913 3.1044 3.21672 3.31135 3.16804 3.19435 3.19868 3.176 3.33452 3.36021 3.29679 3.28653 3.17587 3.13816 3.12948 3.21004 3.3167 3.33871 3.34797 3.4608 3.57501 3.57343 3.52833 3.63532 3.73067 3.99518 4.25516 4.55112 4.62969 4.61061 4.60152 4.65513 4.77279 4.83156 5.18583 5.48474 5.21515 5.08613 5.12612 5.18561 5.01124 4.63967 4.18863 3.6348 3.18771 3.02956 3.0309 3.15922 3.15905 3.02308 2.83403 2.90247 3.11202 3.32299 3.46763 3.60193 3.67962 3.65528 3.51597 3.44203 3.3895 3.34447 3.23629 3.1356 3.02057 2.93593 2.8704 2.83461 2.95498 3.08098 3.17632 4.07023
275.505 0.00025 4.55888 4.01072 3.68812 3.17434 3.22928 3.17858 3.14567 3.2088 3.28669 3.35762 3.3869 3.33879 3.15873 2.96591 2.92536 2.97112 2.95838 3.00183 3.00596 3.07044 3.1127 3.10435 3.02277 2.92884 2.92214 2.90447 2.98258 3.01785 3.03664 3.09315 3.21046 3.31223 3.16696 3.19178 3.18177 3.16884 3.33519 3.38158 3.3143 3.29781 3.19588 3.14578 3.13567 3.19784 3.30566 3.34494 3.34769 3.45126 3.57312 3.5959 3.5343 3.6403 3.72165 3.97315 4.22033 4.53457 4.64636 4.64616 4.62928 4.65562 4.77722 4.82211 5.12181 5.4861 5.31248 5.15981 5.16594 5.22178 5.05259 4.67229 4.22394 3.68016 3.21221 3.03409 3.02907 3.15512 3.15856 3.03253 2.83731 2.89322 3.09638 3.3082 3.45702 3.59307 3.67443 3.65894 3.5211 3.44307 3.38934 3.34783 3.24138 3.13978 3.02349 2.9376 2.87086 2.8321 2.95163 3.07939 3.17877 4.06971
275.5075 0.00025 4.55564 4.05252 3.70955 3.15856 3.22372 3.18514 3.16099 3.23319 3.28555 3.35299 3.38515 3.34801 3.18544 2.97424 2.92562 2.96354 2.9402 2.99755 2.98339 3.05722 3.1147 3.10362 3.02551 2.92507 2.92584 2.89332 2.98016 3.01427 3.03437 3.0837 3.20299 3.30846 3.17026 3.18808 3.16361 3.16588 3.33549 3.39935 3.33459 3.3077 3.218 3.15732 3.14366 3.18735 3.2952 3.35022 3.3487 3.44232 3.56929 3.61827 3.5428 3.64437 3.71759 3.95103 4.18525 4.51215 4.65461 4.67995 4.65904 4.65785 4.77934 4.82057 5.05903 5.46268 5.39429 5.2386 5.21216 5.25883 5.09974 4.7076 4.25675 3.72526 3.23911 3.03978 3.02758 3.15094 3.15785 3.04142 2.84173 2.88504 3.08128 3.29347 3.44628 3.58413 3.66888 3.66222 3.52645 3.44433 3.38904 3.35085 3.24638 3.14398 3.02634 2.93938 2.87146 2.82973 2.94829 3.07776 3.18132 4.06874
275.51 0.00025 4.5265 4.08932 3.73303 3.14713 3.21255 3.18814 3.18101 3.25837 3.28567 3.34589 3.38093 3.35345 3.21692 2.98474 2.92534 2.95724 2.92409 2.99483 2.96197 3.04259 3.11647 3.10223 3.02902 2.92308 2.93109 2.88522 2.97703 3.00968 3.03193 3.07629 3.19416 3.30076 3.17818 3.18327 3.1458 3.1662 3.33534 3.413 3.35623 3.31702 3.24063 3.17286 3.15305 3.17924 3.28485 3.35504 3.35063 3.43315 3.56457 3.63823 3.55538 3.64657 3.71871 3.92934 4.15072 4.48493 4.6545 4.71013 4.68942 4.66224 4.77898 4.82526 5.00183 5.41867 5.45584 5.31842 5.26335 5.29643 5.15205 4.74735 4.2877 3.76969 3.26846 3.04669 3.02641 3.14667 3.15696 3.04975 2.84718 2.87793 3.06666 3.27898 3.43549 3.57511 3.663 3.66511 3.53207 3.44585 3.38865 3.35356 3.25126 3.14818 3.02913 2.94125 2.87219 2.8275 2.94499 3.07611 3.18397 4.0674
275.5125 0.00025 4.47542 4.12109 3.75702 3.1395 3.19917 3.18866 3.20294 3.28401 3.28893 3.33618 3.37408 3.35435 3.25097 2.99704 2.92443 2.95213 2.9103 2.99254 2.94354 3.02718 3.11808 3.10086 3.03271 2.9233 2.93716 2.88039 2.97328 3.00382 3.02954 3.07059 3.18417 3.2897 3.18992 3.17755 3.12949 3.16904 3.33452 3.4222 3.37784 3.32702 3.26265 3.19222 3.16387 3.17425 3.27456 3.35978 3.35321 3.42357 3.56028 3.65369 3.57337 3.6467 3.72433 3.90922 4.11747 4.45358 4.64735 4.73476 4.71927 4.66924 4.77626 4.83395 4.95406 5.35893 5.49359 5.39512 5.31815 5.33484 5.20803 4.79273 4.31716 3.81244 3.3 3.05495 3.02561 3.14238 3.15592 3.05748 2.85351 2.87184 3.05253 3.26465 3.42464 3.566 3.65672 3.66754 3.53779 3.44763 3.38814 3.35597 3.25601 3.15236 3.03186 2.94321 2.87303 2.82543 2.94173 3.07447 3.18673 4.06576
275.515 0.00025 4.41055 4.15066 3.78036 3.135 3.18351 3.18824 3.22184 3.31238 3.29517 3.3245 3.36415 3.35103 3.28539 3.01091 2.92255 2.94878 2.89924 2.99003 2.9293 3.01177 3.11883 3.09964 3.03611 2.92571 2.94325 2.8787 2.969 2.99649 3.02761 3.06591 3.17323 3.27624 3.20455 3.17169 3.11586 3.17388 3.33266 3.42687 3.39803 3.3383 3.28314 3.2148 3.17654 3.17266 3.26453 3.36434 3.35596 3.41343 3.55683 3.6632 3.59656 3.64592 3.7334 3.89232 4.08672 4.41882 4.63513 4.75259 4.74735 4.6785 4.77182 4.84446 4.9182 5.28901 5.50631 5.46385 5.37452 5.3742 5.26595 4.84473 4.34624 3.85317 3.33379 3.06472 3.02525 3.13804 3.15474 3.06461 2.86066 2.86687 3.03899 3.25053 3.41367 3.55693 3.65012 3.66954 3.54362 3.44968 3.38758 3.35809 3.26064 3.15652 3.03453 2.94524 2.87398 2.82353 2.93851 3.07285 3.18966 4.06374
275.5175 0.00025 4.33834 4.18129 3.8028 3.13209 3.16432 3.1865 3.23488 3.34471 3.30273 3.31397 3.35104 3.34465 3.31664 3.02619 2.9204 2.94745 2.8909 2.9864 2.91975 2.99731 3.11788 3.09869 3.03907 2.93007 2.94872 2.87972 2.96427 2.98814 3.02673 3.06127 3.16126 3.26097 3.22039 3.16665 3.10583 3.18051 3.32889 3.42715 3.41565 3.35149 3.3017 3.23975 3.19123 3.17442 3.25507 3.36825 3.35921 3.40292 3.55416 3.66663 3.62326 3.64613 3.74381 3.8798 4.05838 4.38116 4.61884 4.76215 4.77236 4.68976 4.76647 4.85513 4.89536 5.21515 5.49511 5.52019 5.43012 5.4142 5.32469 4.90365 4.37667 3.89139 3.36955 3.07611 3.0253 3.13366 3.15341 3.07113 2.86852 2.863 3.02595 3.23669 3.4027 3.54783 3.64324 3.67109 3.5495 3.45204 3.38697 3.35989 3.26512 3.16063 3.03712 2.94734 2.87506 2.82178 2.93534 3.07119 3.19268 4.06141
275.52 0.00025 4.26927 4.21378 3.82237 3.12967 3.14208 3.18119 3.24136 3.38114 3.31038 3.30716 3.33558 3.33771 3.34158 3.04296 2.91916 2.9479 2.88519 2.98078 2.91437 2.98475 3.11468 3.09798 3.04174 2.93601 2.95298 2.88309 2.95934 2.97973 3.02733 3.05625 3.14822 3.24466 3.23588 3.16367 3.09972 3.18803 3.32199 3.42321 3.42992 3.36678 3.31828 3.26659 3.20856 3.17956 3.2464 3.37105 3.36325 3.3921 3.55158 3.6653 3.6504 3.64981 3.75368 3.8729 4.03359 4.34232 4.60006 4.76326 4.79345 4.7027 4.7609 4.86391 4.88447 5.14358 5.46321 5.56043 5.48285 5.45379 5.3828 4.96867 4.40999 3.92711 3.40688 3.0892 3.0258 3.12926 3.15191 3.07713 2.87695 2.86025 3.01352 3.22315 3.39157 3.53874 3.63612 3.6722 3.55535 3.4547 3.38638 3.3614 3.26946 3.16472 3.0397 2.94955 2.87627 2.8202 2.93224 3.06955 3.19578 4.05872
275.5225 0.00025 4.20849 4.24974 3.84014 3.12665 3.12017 3.16663 3.24286 3.41789 3.31809 3.30598 3.31875 3.33155 3.35902 3.06041 2.91961 2.95012 2.88217 2.97276 2.9127 2.97489 3.10863 3.09764 3.04423 2.94288 2.95582 2.88826 2.95437 2.97222 3.02982 3.0508 3.13389 3.22778 3.2495 3.16405 3.09809 3.1957 3.31195 3.41558 3.43958 3.38375 3.33329 3.29483 3.22746 3.18793 3.23871 3.37228 3.3689 3.38135 3.54822 3.66134 3.67444 3.65917 3.7613 3.87129 4.0124 4.30368 4.57951 4.75698 4.8095 4.71657 4.75577 4.86959 4.8835 5.07875 5.41405 5.58138 5.53072 5.49161 5.43959 5.03827 4.44775 3.96046 3.44537 3.10414 3.02693 3.1249 3.15022 3.08259 2.88587 2.85859 3.00165 3.20992 3.38046 3.52967 3.62878 3.67288 3.56116 3.45766 3.38577 3.36261 3.27366 3.16873 3.0422 2.95182 2.87758 2.81876 2.92922 3.06795 3.19897 4.05549
275.525 0.00025 4.16307 4.28397 3.85538 3.12204 3.10396 3.14055 3.2429 3.44952 3.32677 3.31027 3.30241 3.32683 3.36906 3.07804 2.92197 2.95365 2.88137 2.96224 2.91356 2.96786 3.09936 3.09735 3.04703 2.9503 2.95716 2.89484 2.94953 2.9665 3.03373 3.04527 3.11823 3.21102 3.26015 3.16844 3.10095 3.20264 3.29924 3.40437 3.44373 3.40133 3.34698 3.32428 3.24743 3.2 3.23172 3.37135 3.37654 3.37133 3.54383 3.65685 3.69197 3.67477 3.76641 3.87458 3.99486 4.267 4.55754 4.7452 4.81958 4.73092 4.75173 4.8714 4.88971 5.02484 5.3523 5.58151 5.57151 5.5261 5.49404 5.1105 4.49142 3.99199 3.48435 3.1211 3.02872 3.12054 3.14833 3.08759 2.89511 2.858 2.99044 3.19704 3.36933 3.5206 3.62121 3.67309 3.56687 3.46098 3.38523 3.36358 3.27776 3.17268 3.04464 2.95413 2.87898 2.81749 2.92628 3.06642 3.20231 4.05208
275.5275 0.00025 4.1352 4.3123 3.86322 3.11518 3.09675 3.10526 3.24414 3.47152 3.3398 3.31937 3.28843 3.32309 3.37269 3.09507 2.92577 2.95793 2.88255 2.95001 2.91624 2.96358 3.08666 3.09651 3.05063 2.95797 2.95694 2.90226 2.94505 2.9633 3.03834 3.04037 3.10122 3.19474 3.26693 3.17732 3.10771 3.20746 3.28479 3.38982 3.44177 3.4185 3.35992 3.35473 3.26776 3.2161 3.22565 3.36808 3.38625 3.36281 3.53833 3.65337 3.70139 3.69583 3.76988 3.88163 3.9812 4.23358 4.53369 4.72985 4.82284 4.74483 4.74896 4.86952 4.90061 4.98473 5.28355 5.56114 5.60242 5.55643 5.54546 5.18344 4.54141 4.02288 3.5235 3.13999 3.03108 3.11619 3.14621 3.09217 2.9046 2.85847 2.97987 3.1845 3.35812 3.5115 3.6134 3.67286 3.57246 3.46464 3.38478 3.36431 3.28172 3.17654 3.04705 2.9565 2.88047 2.81637 2.9234 3.06491 3.20579 4.0482
275.53 0.00025 4.12383 4.33492 3.8639 3.10546 3.09643 3.06991 3.24922 3.47833 3.35742 3.33046 3.2789 3.31926 3.37108 3.11116 2.93092 2.96271 2.88524 2.93655 2.91978 2.96161 3.07087 3.09412 3.05512 2.96567 2.95553 2.90982 2.9411 2.96281 3.04252 3.03664 3.08298 3.1797 3.26989 3.19066 3.11816 3.20974 3.26975 3.37247 3.43335 3.43383 3.37243 3.38536 3.28728 3.23649 3.22069 3.36258 3.39787 3.35679 3.53161 3.65143 3.70296 3.71969 3.77338 3.89112 3.97179 4.20418 4.50782 4.71284 4.81971 4.75719 4.74793 4.86466 4.91322 4.95847 5.21285 5.52244 5.6216 5.58243 5.59263 5.25601 4.59767 4.05466 3.56215 3.16093 3.03427 3.11191 3.14389 3.09643 2.91422 2.86003 2.97003 3.17232 3.34702 3.50249 3.60541 3.67219 3.57788 3.46862 3.3844 3.36477 3.28553 3.18031 3.04943 2.95893 2.8821 2.81546 2.92062 3.0634 3.20933 4.04414
275.5325 0.00025 4.12468 4.34436 3.85537 3.09345 3.0979 3.04288 3.25758 3.46804 3.37883 3.34203 3.27549 3.31344 3.36507 3.12711 2.93662 2.96769 2.8889 2.92266 2.92337 2.96115 3.05283 3.08971 3.06011 2.97338 2.95351 2.91695 2.93788 2.96482 3.04537 3.03431 3.06426 3.16629 3.26948 3.20796 3.13134 3.20937 3.25478 3.35263 3.41818 3.4464 3.38474 3.41546 3.30565 3.26109 3.2179 3.35519 3.41093 3.35419 3.52375 3.65109 3.69941 3.74276 3.77867 3.90135 3.96713 4.17926 4.48077 4.69498 4.8106 4.76691 4.74818 4.85729 4.92513 4.94514 5.14533 5.46855 5.62662 5.60362 5.63404 5.32678 4.65893 4.08874 3.60021 3.18385 3.03835 3.10775 3.14128 3.10042 2.92385 2.86252 2.96083 3.16055 3.33597 3.4935 3.59724 3.67102 3.58308 3.47293 3.38416 3.36502 3.2892 3.18398 3.05178 2.96141 2.88379 2.81469 2.91792 3.06199 3.2129 4.03964
275.535 0.00025 4.13346 4.34178 3.84119 3.08052 3.09791 3.03004 3.26516 3.44215 3.40171 3.3537 3.2785 3.30446 3.35532 3.14406 2.94372 2.97236 2.89278 2.90939 2.92662 2.96128 3.03344 3.08293 3.06489 2.98117 2.95159 2.92327 2.93543 2.96916 3.04626 3.03293 3.04619 3.15488 3.26596 3.22828 3.14653 3.20699 3.24011 3.3309 3.39699 3.45577 3.39756 3.44388 3.32233 3.28835 3.21914 3.34639 3.42449 3.356 3.515 3.65207 3.69423 3.76069 3.78693 3.91073 3.9679 4.15881 4.45365 4.67616 4.79731 4.77326 4.74906 4.8482 4.93473 4.94302 5.08545 5.40383 5.61529 5.61821 5.66908 5.3948 4.72445 4.12652 3.63738 3.20863 3.04344 3.10375 3.13841 3.10412 2.93341 2.866 2.9524 3.14913 3.32499 3.48461 3.58902 3.66943 3.58801 3.47757 3.38407 3.36507 3.29273 3.18754 3.05409 2.96392 2.88555 2.81406 2.91533 3.06068 3.21669 4.03489
275.5375 0.00025 4.14192 4.3247 3.82381 3.0676 3.09426 3.03314 3.26694 3.40406 3.4219 3.36653 3.28781 3.2924 3.34264 3.16276 2.95272 2.97689 2.89641 2.89768 2.92933 2.96104 3.01366 3.07374 3.06828 2.98895 2.95034 2.9287 2.93373 2.97512 3.04542 3.03196 3.03035 3.14534 3.25986 3.25043 3.16286 3.20357 3.22586 3.30752 3.37097 3.46167 3.41086 3.46969 3.33794 3.31617 3.2262 3.33687 3.43738 3.36258 3.50522 3.65353 3.69107 3.77086 3.79823 3.91822 3.97434 4.14241 4.42759 4.65626 4.78085 4.77642 4.75074 4.83854 4.9404 4.9487 5.03546 5.33185 5.58828 5.62491 5.69857 5.45812 4.7927 4.16926 3.6742 3.23519 3.04956 3.09995 3.1353 3.10764 2.94284 2.87042 2.94474 3.13816 3.31421 3.47572 3.58062 3.66733 3.59266 3.48252 3.38413 3.36493 3.29617 3.191 3.0564 2.96646 2.88737 2.81359 2.91284 3.05942 3.22056 4.03022
275.54 0.00025 4.14493 4.29358 3.80536 3.05655 3.08822 3.05057 3.25857 3.35772 3.43403 3.38097 3.30208 3.27805 3.3277 3.18228 2.96456 2.98167 2.89935 2.8885 2.93119 2.95977 2.99397 3.06242 3.06899 2.99667 2.95044 2.93341 2.93248 2.98203 3.0437 3.03055 3.01827 3.13745 3.25157 3.27272 3.1798 3.20034 3.21131 3.2832 3.34149 3.46391 3.42427 3.49153 3.35306 3.34214 3.24042 3.32734 3.44854 3.37401 3.49511 3.65508 3.6925 3.77246 3.81131 3.92354 3.98631 4.12966 4.40341 4.63568 4.76209 4.77638 4.75202 4.82893 4.94113 4.95905 4.99739 5.25674 5.54737 5.62155 5.72369 5.51471 4.86218 4.21756 3.71123 3.26329 3.05689 3.09637 3.13192 3.11099 2.95207 2.87571 2.93786 3.12748 3.30348 3.46695 3.57211 3.66479 3.59698 3.48783 3.38443 3.36457 3.29947 3.19436 3.05871 2.96905 2.88927 2.81329 2.91045 3.05823 3.2244 4.02519
275.5425 0.00025 4.13843 4.25167 3.78693 3.04794 3.08093 3.07699 3.23891 3.3074 3.43458 3.39708 3.3202 3.26348 3.31096 3.20124 2.97948 2.98741 2.90127 2.88241 2.932 2.95725 2.97525 3.04932 3.06607 3.00431 2.95237 2.93786 2.93156 2.98924 3.04224 3.02833 3.01108 3.13087 3.24165 3.29329 3.19644 3.19861 3.19571 3.25892 3.30987 3.46244 3.43725 3.50852 3.36837 3.36434 3.26232 3.31876 3.4572 3.38987 3.4856 3.65675 3.6995 3.76745 3.82367 3.92663 4.00348 4.12118 4.38081 4.61501 4.74146 4.7737 4.75246 4.81991 4.93679 4.97105 4.97167 5.18198 5.49514 5.60629 5.74442 5.56293 4.93185 4.27163 3.74957 3.29272 3.06544 3.09308 3.1283 3.11423 2.96104 2.88185 2.93184 3.11726 3.29296 3.45822 3.56353 3.66175 3.60098 3.4935 3.38499 3.36404 3.30263 3.1976 3.06101 2.97171 2.89127 2.81317 2.90818 3.05715 3.2284 4.02002
275.545 0.00025 4.12196 4.19039 3.76963 3.04258 3.07604 3.10483 3.21054 3.2557 3.42173 3.41227 3.34001 3.25175 3.29482 3.21779 2.99755 2.99484 2.90164 2.87974 2.9317 2.95321 2.95773 3.035 3.05877 3.01128 2.95598 2.94233 2.93074 2.99591 3.04197 3.02543 3.00913 3.12562 3.2308 3.31047 3.2121 3.19926 3.1782 3.23572 3.27751 3.45776 3.44869 3.52045 3.38422 3.3819 3.2913 3.31261 3.46314 3.40926 3.47776 3.65766 3.71152 3.75991 3.833 3.92766 4.02401 4.11736 4.35942 4.59483 4.71886 4.76842 4.75223 4.81239 4.92783 4.98241 4.95817 5.11106 5.4344 5.57899 5.75958 5.60274 4.99997 4.33061 3.79023 3.32346 3.0754 3.09009 3.12442 3.11743 2.96974 2.88873 2.92672 3.10743 3.28265 3.44957 3.55488 3.65823 3.60461 3.49943 3.38583 3.36337 3.30565 3.20068 3.06329 2.97438 2.89331 2.81319 2.906 3.0562 3.23254 4.01495
275.5475 0.00025 4.09553 4.1184 3.75221 3.04134 3.07797 3.12487 3.17799 3.20494 3.39645 3.42234 3.35742 3.24529 3.28146 3.23019 3.01898 3.0036 2.90015 2.88076 2.93033 2.94738 2.94145 3.01965 3.04738 3.01731 2.96128 2.94723 2.9302 3.0012 3.04315 3.02226 3.0118 3.12194 3.2195 3.32288 3.22605 3.20256 3.15874 3.21428 3.24561 3.44968 3.45743 3.52742 3.40049 3.39455 3.32532 3.30987 3.46627 3.4308 3.47308 3.65741 3.72773 3.75436 3.83742 3.92712 4.04547 4.11917 4.33912 4.57567 4.69511 4.76049 4.75067 4.80664 4.91505 4.99123 4.95492 5.04619 5.36697 5.54149 5.76701 5.63569 5.06472 4.39391 3.83399 3.35545 3.08683 3.08747 3.12027 3.1205 2.97814 2.89632 2.92244 3.09795 3.27254 3.44103 3.54621 3.65428 3.60783 3.50566 3.387 3.36253 3.30854 3.20362 3.06555 2.97704 2.89537 2.81335 2.90394 3.0553 3.2368 4.00993
275.55 0.00025 4.06097 4.04298 3.73295 3.04732 3.08786 3.1318 3.14401 3.15749 3.36267 3.42492 3.36907 3.24577 3.27308 3.23691 3.04393 3.01314 2.89693 2.88514 2.92798 2.93968 2.92656 3.00333 3.03214 3.02183 2.96796 2.95279 2.93027 3.00471 3.0454 3.01962 3.01751 3.12006 3.20847 3.32914 3.23759 3.20774 3.13821 3.19507 3.21532 3.4389 3.46316 3.53069 3.41635 3.40257 3.36221 3.3122 3.46722 3.45311 3.47299 3.65546 3.74669 3.75474 3.83619 3.92549 4.06516 4.12763 4.32028 4.55678 4.67143 4.75016 4.74772 4.80209 4.89876 4.99558 4.95933 4.98969 5.29515 5.49685 5.76355 5.66368 5.12381 4.46083 3.88222 3.38889 3.09993 3.08539 3.11595 3.12351 2.98618 2.90454 2.91908 3.08887 3.26261 3.43259 3.53754 3.64986 3.61061 3.51212 3.38851 3.36155 3.31132 3.20643 3.06783 2.97974 2.89746 2.81366 2.90202 3.05455 3.24114 4.00501
275.5525 0.00025 4.01824 3.9686 3.71143 3.06375 3.10376 3.12404 3.11101 3.11502 3.32333 3.42024 3.37332 3.25401 3.27105 3.23746 3.07227 3.02301 2.89229 2.89211 2.92477 2.93023 2.91323 2.98636 3.0141 3.02467 2.97538 2.95915 2.93141 3.00619 3.04789 3.01838 3.02454 3.12007 3.19852 3.32871 3.24656 3.21369 3.11802 3.17791 3.18751 3.42594 3.46543 3.53111 3.43123 3.40643 3.39901 3.32087 3.46699 3.47489 3.47872 3.65171 3.76699 3.76396 3.82953 3.92287 4.07974 4.14283 4.30326 4.53713 4.6491 4.73796 4.74321 4.7991 4.88066 4.99419 4.96913 4.94431 5.22083 5.4474 5.74705 5.68796 5.1758 4.52989 3.93545 3.42402 3.11459 3.08375 3.1114 3.12643 2.9939 2.91328 2.91666 3.08022 3.2529 3.42423 3.52885 3.64496 3.61295 3.51877 3.39041 3.36045 3.31399 3.20913 3.07011 2.98244 2.89955 2.81411 2.90021 3.05389 3.24547 3.99999
275.555 0.00025 3.97589 3.90391 3.68852 3.09151 3.1221 3.10469 3.08073 3.07909 3.2821 3.40858 3.36826 3.26937 3.27651 3.23349 3.10278 3.03353 2.8871 2.90066 2.921 2.91937 2.90131 2.96866 2.99398 3.02553 2.98304 2.96607 2.93391 3.00594 3.04951 3.01862 3.03151 3.12174 3.19018 3.32164 3.25298 3.21878 3.09953 3.16243 3.16353 3.41148 3.46431 3.52962 3.44484 3.40711 3.4333 3.33644 3.46715 3.49474 3.49106 3.64657 3.78679 3.78329 3.81954 3.91982 4.08735 4.16419 4.28934 4.51619 4.62868 4.72427 4.73666 4.79817 4.86196 4.98608 4.9811 4.9111 5.14557 5.39439 5.71832 5.70782 5.2201 4.59917 3.99416 3.46138 3.13103 3.08282 3.10672 3.12924 3.00127 2.92249 2.91515 3.07204 3.24351 3.41588 3.52013 3.63967 3.61486 3.52558 3.39271 3.35928 3.31658 3.21173 3.07241 2.98519 2.90168 2.81472 2.8985 3.05337 3.24997 3.99515
275.5575 0.00025 3.93916 3.84526 3.66645 3.12565 3.13983 3.07883 3.05429 3.04865 3.24176 3.38942 3.35446 3.29066 3.29025 3.22767 3.13261 3.04579 2.88225 2.90977 2.91697 2.90756 2.89082 2.95019 2.97252 3.02454 2.99057 2.97316 2.93777 3.00477 3.04965 3.02055 3.03802 3.1246 3.18356 3.30839 3.257 3.22113 3.08375 3.14849 3.144 3.39686 3.46041 3.52685 3.45752 3.40533 3.46316 3.35828 3.46922 3.51137 3.50983 3.64149 3.80471 3.81203 3.80941 3.91604 4.08685 4.18993 4.28086 4.49441 4.60967 4.70978 4.7267 4.79822 4.84366 4.97141 4.99259 4.89039 5.07214 5.33827 5.67958 5.72111 5.25862 4.66609 4.05855 3.50176 3.14922 3.08251 3.10193 3.13194 3.0084 2.93215 2.91456 3.06425 3.23425 3.4076 3.51144 3.63391 3.61627 3.53249 3.39543 3.35804 3.31908 3.21421 3.07473 2.98795 2.90384 2.8155 2.89694 3.05302 3.25461 3.99072
275.56 0.00025 3.90867 3.80009 3.64909 3.15731 3.15646 3.05198 3.03226 3.02143 3.20539 3.36272 3.3343 3.31328 3.31182 3.22306 3.15845 3.06113 2.87909 2.91879 2.91278 2.89532 2.88157 2.93112 2.95063 3.02196 2.99794 2.98013 2.94299 3.00391 3.04789 3.02366 3.04466 3.12842 3.1786 3.29015 3.25845 3.21941 3.07145 3.13627 3.12913 3.38295 3.45434 3.52256 3.46974 3.40167 3.48705 3.38498 3.47488 3.52395 3.5338 3.63858 3.81943 3.84788 3.80343 3.91177 4.07882 4.21584 4.27892 4.47243 4.59161 4.69571 4.71317 4.79885 4.82597 4.95214 5.00122 4.88124 5.00294 5.27893 5.63415 5.72399 5.29376 4.72787 4.12795 3.54577 3.1693 3.08302 3.0971 3.13448 3.01522 2.94211 2.91492 3.05695 3.22529 3.39936 3.50276 3.62766 3.61722 3.5395 3.39856 3.35679 3.3215 3.21656 3.07706 2.99073 2.90599 2.8164 2.89547 3.05275 3.25935 3.98655
275.5625 0.00025 3.87936 3.76677 3.63995 3.17785 3.1725 3.02754 3.01511 2.99549 3.17454 3.32938 3.31224 3.33163 3.34082 3.22184 3.17828 3.07968 2.87869 2.92719 2.90859 2.88315 2.87368 2.91157 2.92875 3.0177 3.0051 2.98652 2.94956 3.0045 3.04403 3.02727 3.05247 3.1331 3.17479 3.26785 3.25679 3.21306 3.06258 3.12645 3.11899 3.37042 3.44714 3.51656 3.4819 3.39704 3.50534 3.4146 3.48547 3.53277 3.56101 3.64031 3.83066 3.8882 3.80602 3.90716 4.06594 4.23774 4.2845 4.4508 4.57301 4.68287 4.69634 4.79975 4.80903 4.92999 5.0036 4.88222 4.94028 5.21682 5.58437 5.71401 5.3269 4.78224 4.20118 3.59435 3.19146 3.08438 3.09231 3.13688 3.02179 2.95235 2.91624 3.0502 3.21664 3.39117 3.49408 3.62097 3.61766 3.54652 3.40217 3.35554 3.3238 3.21877 3.0794 2.99351 2.90815 2.81744 2.89413 3.05265 3.26422 3.98256
275.565 0.00025 3.84686 3.74148 3.63792 3.18674 3.18702 3.00776 3.00278 2.96932 3.14912 3.29183 3.29192 3.34104 3.37595 3.22556 3.19186 3.10119 2.88263 2.93506 2.90445 2.87111 2.86654 2.89182 2.90741 3.01186 3.01232 2.99235 2.95765 3.00738 3.03856 3.03119 3.06239 3.13892 3.17175 3.24334 3.25166 3.20243 3.05652 3.11954 3.11311 3.35991 3.4396 3.50885 3.49353 3.39209 3.51824 3.4442 3.50085 3.53862 3.58922 3.64903 3.83847 3.9303 3.82071 3.90215 4.05117 4.25063 4.29821 4.43116 4.55276 4.67146 4.67652 4.80014 4.79272 4.90668 4.99763 4.89154 4.88591 5.15332 5.53068 5.69183 5.35805 4.82866 4.27652 3.64852 3.21592 3.08675 3.08761 3.13905 3.02806 2.96274 2.91841 3.04391 3.20821 3.38303 3.48552 3.61394 3.61761 3.55356 3.40627 3.35433 3.32596 3.22085 3.08174 2.99631 2.9103 2.81861 2.8929 3.05269 3.26916 3.97893
275.5675 0.00025 3.80632 3.72571 3.6405 3.19074 3.19954 2.99294 2.99663 2.94492 3.12712 3.25352 3.27605 3.33945 3.41371 3.23578 3.19935 3.12398 2.89192 2.94273 2.90059 2.85939 2.86 2.87226 2.88713 3.00418 3.01969 2.99739 2.96733 3.01285 3.03205 3.03511 3.0749 3.14666 3.16925 3.21806 3.24247 3.18831 3.05209 3.11595 3.11149 3.35158 3.43229 3.49956 3.504 3.3874 3.52652 3.47137 3.52056 3.54302 3.61689 3.66637 3.84284 3.97047 3.84965 3.89757 4.038 4.25144 4.31884 4.41507 4.53051 4.66148 4.65396 4.79876 4.77713 4.88332 4.98381 4.90658 4.84067 5.09012 5.47186 5.65971 5.38373 4.86755 4.35086 3.70906 3.24295 3.09021 3.08306 3.141 3.0341 2.97327 2.92143 3.03819 3.20016 3.37494 3.4769 3.6064 3.61698 3.56051 3.41084 3.35325 3.32805 3.22279 3.08408 2.99911 2.91246 2.81991 2.89176 3.05284 3.27425 3.97544
275.57 0.00025 3.75557 3.71607 3.6463 3.19473 3.2102 2.98262 2.99819 2.92469 3.10598 3.21768 3.26519 3.32839 3.44942 3.25545 3.20092 3.14629 2.90754 2.95049 2.89676 2.8479 2.8535 2.85326 2.86813 2.99449 3.02668 3.00183 2.97901 3.02064 3.02542 3.0394 3.08962 3.15665 3.16686 3.19374 3.22853 3.17169 3.04854 3.11569 3.11422 3.34511 3.42632 3.48899 3.51217 3.38413 3.53153 3.49417 3.54311 3.54715 3.64198 3.69252 3.84512 4.00521 3.89283 3.89575 4.02904 4.23973 4.344 4.40424 4.50584 4.65182 4.62959 4.79478 4.763 4.85953 4.96489 4.92205 4.80531 5.02926 5.40685 5.62097 5.4006 4.90148 4.42064 3.77619 3.27299 3.09497 3.07876 3.14268 3.03997 2.98391 2.92528 3.03296 3.19243 3.3669 3.46844 3.59857 3.61592 3.56734 3.41586 3.35229 3.33003 3.22462 3.08643 3.00194 2.91463 2.82135 2.89072 3.05316 3.27951 3.97252
275.5725 0.00025 3.70259 3.70867 3.65514 3.19861 3.21995 2.97615 3.00803 2.91108 3.08236 3.18659 3.25924 3.31101 3.47666 3.28576 3.19749 3.16716 2.93012 2.95901 2.89314 2.83691 2.84676 2.83526 2.85078 2.98236 3.0331 3.00605 2.99274 3.03039 3.01981 3.04437 3.10645 3.16908 3.16426 3.17145 3.20949 3.15346 3.04474 3.1184 3.12112 3.33964 3.42287 3.47766 3.51695 3.38307 3.53426 3.51112 3.56649 3.55256 3.66351 3.72658 3.84814 4.03283 3.94833 3.89917 4.02536 4.21825 4.36974 4.40041 4.47976 4.64163 4.60474 4.78701 4.75118 4.83501 4.94469 4.93238 4.78075 4.97212 5.3357 5.57765 5.40609 4.93271 4.48291 3.84978 3.30654 3.10115 3.07475 3.14409 3.04565 2.99455 2.92994 3.02834 3.18506 3.35891 3.46001 3.59033 3.61432 3.57399 3.42132 3.3515 3.33192 3.22632 3.08875 3.00477 2.91681 2.82295 2.88981 3.05364 3.28488 3.96988
275.575 0.00025 3.65209 3.70183 3.66946 3.19931 3.22919 2.97215 3.02446 2.90486 3.0559 3.16152 3.25784 3.29118 3.49176 3.32563 3.18994 3.18541 2.95887 2.96907 2.89006 2.82649 2.83942 2.81857 2.8353 2.96779 3.03838 3.01026 3.00856 3.04186 3.01618 3.04988 3.12516 3.18304 3.16126 3.15165 3.18506 3.13409 3.04011 3.12326 3.13224 3.33488 3.42274 3.46631 3.5178 3.38528 3.53575 3.5218 3.58839 3.56016 3.68082 3.76548 3.85466 4.05311 4.01256 3.91127 4.02638 4.19092 4.39058 4.40479 4.45371 4.63012 4.58123 4.77418 4.74099 4.80885 4.92577 4.93428 4.76703 4.91965 5.25996 5.52915 5.40012 4.96156 4.53572 3.92879 3.34426 3.10898 3.07114 3.1452 3.05114 3.00516 2.93533 3.02429 3.17817 3.35097 3.45166 3.58172 3.61219 3.58041 3.42718 3.35089 3.33371 3.22794 3.09109 3.00762 2.91896 2.82466 2.88902 3.05425 3.29031 3.96753
275.5775 0.00025 3.61133 3.69599 3.69052 3.19425 3.23559 2.97142 3.04441 2.90555 3.0276 3.14234 3.26066 3.2726 3.49436 3.37121 3.18155 3.20005 2.99285 2.98145 2.88802 2.81705 2.83139 2.80301 2.82154 2.95113 3.04182 3.01461 3.02603 3.05441 3.01521 3.05627 3.14615 3.19756 3.15807 3.13409 3.15578 3.11383 3.03421 3.12887 3.14726 3.33058 3.42611 3.45559 3.51461 3.39083 3.53652 3.52673 3.60725 3.57043 3.69435 3.806 3.8674 4.06631 4.08118 3.93522 4.03169 4.16376 4.40133 4.4179 4.42953 4.61623 4.56047 4.75565 4.73158 4.7817 4.90757 4.92841 4.76118 4.87284 5.18261 5.47303 5.38478 4.98598 4.57885 4.01067 3.38683 3.1187 3.068 3.14603 3.05647 3.01569 2.9414 3.02078 3.17165 3.34313 3.44345 3.57283 3.60961 3.58658 3.43344 3.35051 3.3354 3.2295 3.09347 3.01047 2.92107 2.82646 2.88834 3.05497 3.29585 3.96551
275.58 0.00025 3.58313 3.69748 3.715 3.18459 3.23762 2.97522 3.06392 2.91216 3.00055 3.12706 3.26696 3.2586 3.48553 3.41636 3.17679 3.21102 3.02983 2.99697 2.88748 2.80879 2.82234 2.78873 2.80909 2.93308 3.04258 3.01929 3.04496 3.06821 3.01762 3.0636 3.16954 3.21091 3.15476 3.11789 3.1224 3.09299 3.02715 3.13398 3.16595 3.32694 3.43267 3.44614 3.50787 3.39968 3.5368 3.52701 3.62169 3.58316 3.70437 3.84482 3.88858 4.07302 4.14864 3.97342 4.04082 4.14178 4.39832 4.43842 4.40845 4.59878 4.54328 4.73132 4.72273 4.75553 4.88778 4.91907 4.75793 4.83375 5.1064 5.40797 5.36306 5.00334 4.61381 4.0922 3.43484 3.13057 3.06546 3.14657 3.06163 3.02604 2.94805 3.01783 3.16559 3.33538 3.43535 3.56362 3.60644 3.59238 3.44007 3.35042 3.33698 3.23095 3.09582 3.01334 2.92318 2.82838 2.88777 3.0559 3.30152 3.96412
275.5825 0.00025 3.56687 3.71742 3.7374 3.17523 3.23456 2.98492 3.07906 2.92565 2.97708 3.11373 3.27471 3.25179 3.46709 3.45421 3.17892 3.21846 3.06784 3.01614 2.88894 2.80184 2.81249 2.77572 2.79774 2.91451 3.03998 3.02427 3.06459 3.08334 3.02392 3.07238 3.19533 3.22174 3.15182 3.10206 3.08649 3.07174 3.01902 3.13687 3.18754 3.32417 3.44127 3.43872 3.49828 3.4111 3.5369 3.52413 3.63039 3.59761 3.71157 3.8788 3.9194 4.07602 4.20973 4.02646 4.05463 4.12881 4.38135 4.46416 4.39241 4.5777 4.5299 4.70224 4.71357 4.73139 4.86375 4.90975 4.75209 4.80341 5.03272 5.33365 5.33568 5.01153 4.64228 4.16985 3.48879 3.14498 3.06361 3.14683 3.06661 3.0363 2.95535 3.0155 3.15999 3.3278 3.42743 3.5542 3.60281 3.59783 3.44707 3.35062 3.33847 3.23233 3.09816 3.01619 2.92528 2.83041 2.88733 3.05698 3.30742 3.96311
275.585 0.00025 3.56036 3.765 3.75459 3.16909 3.22691 3.00019 3.08824 2.94767 2.95756 3.10108 3.28145 3.25442 3.44187 3.47833 3.18942 3.22435 3.10434 3.03895 2.89351 2.79637 2.80223 2.76396 2.78706 2.89622 3.03368 3.02975 3.08483 3.09988 3.0342 3.08283 3.2231 3.22929 3.14894 3.08602 3.04989 3.05003 3.01039 3.13672 3.21113 3.3227 3.45038 3.43431 3.48707 3.42367 3.53721 3.52002 3.63299 3.61286 3.71702 3.90544 3.95866 4.07927 4.2601 4.09152 4.07493 4.1265 4.35343 4.49107 4.38233 4.55295 4.51997 4.66936 4.70328 4.71006 4.83611 4.90076 4.74294 4.78097 4.96178 5.25326 5.30142 5.00975 4.66484 4.24056 3.54865 3.16233 3.06259 3.14686 3.07144 3.04639 2.96314 3.01371 3.15479 3.3204 3.41968 3.54459 3.59866 3.60287 3.45444 3.35123 3.33987 3.23363 3.10047 3.01905 2.92737 2.83254 2.88697 3.05811 3.31342 3.96237
275.5875 0.00025 3.56318 3.83983 3.76516 3.16583 3.2156 3.01816 3.09122 2.97716 2.94165 3.08881 3.28476 3.26601 3.41309 3.48642 3.20729 3.23118 3.1372 3.06502 2.902 2.79268 2.79158 2.75361 2.77689 2.87895 3.02382 3.03584 3.10492 3.1176 3.04799 3.09525 3.25187 3.23344 3.14535 3.06989 3.01439 3.02759 3.00178 3.1331 3.23529 3.32279 3.45918 3.43372 3.47542 3.43607 3.53753 3.51633 3.62979 3.62751 3.72123 3.92387 4.00323 4.08678 4.29804 4.16537 4.1043 4.13452 4.32084 4.51471 4.379 4.52535 4.51198 4.63414 4.69084 4.69146 4.80702 4.88741 4.73372 4.76278 4.8943 5.17012 5.25781 5.00052 4.68112 4.30253 3.61357 3.18309 3.0625 3.14662 3.07604 3.05623 2.97143 3.01255 3.14999 3.31315 3.41209 3.5348 3.59399 3.60739 3.46207 3.3522 3.34121 3.23489 3.10277 3.02191 2.92948 2.83477 2.88672 3.05937 3.31962 3.962
275.59 0.00025 3.57224 3.92955 3.77101 3.16434 3.20326 3.03539 3.09004 3.01076 2.92966 3.07742 3.28364 3.28329 3.38544 3.47949 3.22858 3.24083 3.16506 3.0932 2.91481 2.79118 2.78105 2.74481 2.76724 2.86316 3.01094 3.04216 3.12397 3.13683 3.06519 3.11021 3.27992 3.23501 3.14034 3.05384 2.98167 3.00415 2.99362 3.12634 3.25844 3.32468 3.46675 3.43756 3.46425 3.44719 3.53822 3.51413 3.62188 3.6404 3.72446 3.93417 4.04848 4.10085 4.32309 4.24333 4.1452 4.15092 4.29014 4.53103 4.38341 4.49646 4.50477 4.5987 4.67503 4.67497 4.77889 4.86603 4.72942 4.74413 4.83224 5.0874 5.2025 4.98597 4.6892 4.35505 3.68217 3.20774 3.0635 3.14618 3.08048 3.06589 2.98012 3.01202 3.14555 3.30618 3.40478 3.52489 3.58882 3.61138 3.46997 3.35358 3.34249 3.23613 3.10505 3.02479 2.93161 2.83708 2.88659 3.06083 3.32596 3.96208
275.5925 0.00025 3.59096 4.01965 3.77426 3.16486 3.19075 3.04927 3.0864 3.04227 2.9218 3.06756 3.27862 3.30033 3.36164 3.46122 3.24839 3.25428 3.18715 3.12166 2.93199 2.79239 2.77102 2.73757 2.75836 2.84935 2.99612 3.04877 3.14136 3.15765 3.08482 3.12841 3.30533 3.23503 3.1336 3.03885 2.95275 2.97937 2.9862 3.11701 3.27872 3.32882 3.47282 3.4459 3.45435 3.4564 3.53923 3.51423 3.61016 3.65041 3.7268 3.93727 4.0904 4.12277 4.33784 4.32045 4.19925 4.17435 4.26747 4.53706 4.39513 4.46742 4.49625 4.56509 4.65591 4.66051 4.75194 4.83721 4.72947 4.72246 4.77701 5.00672 5.13611 4.96652 4.68772 4.39788 3.75221 3.23681 3.06578 3.14556 3.08467 3.07529 2.9892 3.01213 3.14151 3.29952 3.39765 3.51486 3.58311 3.61483 3.47807 3.35542 3.34371 3.23732 3.10729 3.02765 2.93373 2.83945 2.88658 3.06241 3.33245 3.96224