275.5025 0.00025 -0.0175776 -0.0436318 -0.0986117 -0.13695 -0.157047 -0.178978 -0.18363 -0.185333 -0.179838 -0.178028 -0.173188 -0.165667 -0.160898 -0.162178 -0.157526 -0.15361 -0.151226 -0.143561 -0.141477 -0.148203 -0.14472 -0.140502 -0.140192 -0.134637 -0.134605 -0.133146 -0.13302 -0.135402 -0.140778 -0.146097 -0.147257 -0.144502 -0.140591 -0.14059 -0.145177 -0.149059 -0.15114 -0.155341 -0.157277 -0.156004 -0.15736 -0.157829 -0.15953 -0.161807 -0.159572 -0.15787 -0.154073 -0.150791 -0.147983 -0.144665 -0.139922 -0.13627 -0.132196 -0.130064 -0.126705 -0.121697 -0.115236 -0.108804 -0.103446 -0.0992652 -0.0956636 -0.0901597 -0.0863723 -0.0811452 -0.0759991 -0.0728048 -0.0704 -0.0696625 -0.0670454 -0.0635655 -0.0609516 -0.0573725 -0.0553798 -0.0542233 -0.0531031 -0.0526588 -0.0524447 -0.0514158 -0.0501638 -0.0493156 -0.048532 -0.0478473 -0.047467 -0.0469375 -0.0467639 -0.046347 -0.0459033 -0.0453992 -0.0443623 -0.0435811 -0.0428251 -0.0416577 -0.0410893 -0.0399122 -0.0390236 -0.0373085 -0.0364485 -0.0347308 -0.0335696 -0.0312047
275.505 0.00025 -0.0450508 -0.0709637 -0.125013 -0.163143 -0.182683 -0.205456 -0.210737 -0.21295 -0.20784 -0.206095 -0.20106 -0.193508 -0.188211 -0.188864 -0.184694 -0.180808 -0.178704 -0.171117 -0.168755 -0.175526 -0.171895 -0.168121 -0.167777 -0.161802 -0.16144 -0.159977 -0.159985 -0.162477 -0.167956 -0.17309 -0.174309 -0.17183 -0.168026 -0.167992 -0.17269 -0.176362 -0.178858 -0.18327 -0.185098 -0.184028 -0.185143 -0.185882 -0.187605 -0.189597 -0.187344 -0.185357 -0.181499 -0.178208 -0.1756 -0.172454 -0.167542 -0.163884 -0.159709 -0.157527 -0.154201 -0.149343 -0.14312 -0.136757 -0.131352 -0.127176 -0.123638 -0.118032 -0.114083 -0.108887 -0.103707 -0.100446 -0.0980104 -0.0972654 -0.0946541 -0.0911323 -0.0885839 -0.0850135 -0.0829092 -0.0816683 -0.0805378 -0.0800599 -0.0799141 -0.0789184 -0.077635 -0.0767585 -0.0759659 -0.0753053 -0.0749452 -0.0744225 -0.0742575 -0.0738521 -0.0734091 -0.0729067 -0.0718752 -0.0710927 -0.0703425 -0.0691805 -0.0685957 -0.0674237 -0.0665344 -0.0648188 -0.0639704 -0.0622497 -0.0610867 -0.0587118
275.5075 0.00025 -0.152522 -0.178768 -0.232943 -0.271803 -0.290583 -0.313643 -0.319573 -0.322668 -0.317279 -0.315602 -0.310859 -0.303227 -0.297315 -0.297674 -0.293748 -0.289521 -0.287805 -0.280551 -0.278135 -0.285018 -0.28161 -0.278364 -0.278069 -0.272055 -0.271456 -0.269881 -0.269943 -0.2722 -0.277743 -0.282825 -0.283964 -0.281799 -0.277954 -0.277866 -0.282506 -0.286024 -0.288658 -0.292971 -0.294704 -0.293644 -0.29436 -0.295161 -0.297039 -0.298633 -0.296224 -0.293894 -0.290054 -0.286885 -0.284544 -0.281618 -0.276358 -0.2724 -0.268269 -0.265849 -0.262522 -0.257746 -0.251535 -0.244909 -0.239391 -0.235179 -0.231624 -0.22598 -0.222026 -0.216966 -0.211834 -0.208487 -0.205972 -0.205312 -0.202744 -0.199232 -0.196705 -0.193102 -0.190895 -0.18962 -0.188475 -0.187977 -0.18786 -0.186892 -0.185588 -0.184698 -0.183908 -0.183256 -0.182909 -0.182378 -0.182208 -0.181807 -0.181353 -0.180838 -0.179808 -0.179036 -0.178286 -0.177102 -0.176512 -0.17533 -0.174454 -0.172744 -0.171882 -0.170162 -0.168999 -0.166631
275.51 0.00025 -0.230803 -0.25712 -0.311179 -0.350307 -0.368077 -0.391786 -0.397944 -0.40134 -0.395874 -0.393742 -0.388968 -0.381132 -0.375146 -0.374949 -0.371238 -0.367177 -0.365523 -0.358582 -0.356114 -0.363023 -0.359527 -0.356655 -0.356108 -0.349732 -0.348685 -0.34711 -0.347377 -0.349693 -0.355315 -0.360228 -0.361474 -0.359448 -0.355604 -0.355434 -0.360224 -0.363739 -0.366834 -0.371412 -0.373138 -0.372093 -0.372816 -0.37368 -0.375707 -0.376952 -0.374245 -0.372134 -0.368384 -0.36524 -0.363199 -0.360682 -0.355034 -0.350971 -0.346824 -0.344212 -0.340775 -0.336275 -0.330274 -0.323669 -0.318076 -0.313707 -0.310213 -0.304573 -0.300444 -0.29552 -0.290435 -0.287101 -0.284512 -0.283844 -0.281295 -0.277727 -0.275224 -0.271666 -0.269371 -0.26801 -0.266832 -0.266332 -0.266254 -0.265307 -0.263968 -0.263047 -0.262254 -0.261617 -0.261274 -0.260722 -0.260561 -0.260167 -0.25971 -0.259183 -0.258143 -0.257367 -0.256606 -0.255416 -0.254822 -0.253634 -0.252743 -0.25104 -0.250165 -0.248442 -0.24729 -0.244922
275.5125 0.00025 -0.277441 -0.304192 -0.357597 -0.397423 -0.414644 -0.438855 -0.445627 -0.449372 -0.443366 -0.441076 -0.435771 -0.427779 -0.421951 -0.421149 -0.417166 -0.413405 -0.411927 -0.405375 -0.402538 -0.409525 -0.40636 -0.404031 -0.403243 -0.396711 -0.395514 -0.39387 -0.394123 -0.396242 -0.401885 -0.406667 -0.407773 -0.405928 -0.40244 -0.402314 -0.40705 -0.410627 -0.413894 -0.418745 -0.420397 -0.419129 -0.419717 -0.420874 -0.423162 -0.424069 -0.421231 -0.418907 -0.415049 -0.411913 -0.410272 -0.408047 -0.402337 -0.398107 -0.393882 -0.391157 -0.387668 -0.383195 -0.377292 -0.370698 -0.365021 -0.36067 -0.35735 -0.351759 -0.34747 -0.342594 -0.337608 -0.334189 -0.331552 -0.330878 -0.328405 -0.324818 -0.322362 -0.31879 -0.316417 -0.314961 -0.313746 -0.31321 -0.313177 -0.312257 -0.310882 -0.309947 -0.30914 -0.308513 -0.308206 -0.307642 -0.307484 -0.307106 -0.30666 -0.306121 -0.305085 -0.304301 -0.303541 -0.302343 -0.301739 -0.300554 -0.299655 -0.297949 -0.297077 -0.29535 -0.294202 -0.291829
275.515 0.00025 -0.410593 -0.437583 -0.490555 -0.532036 -0.549163 -0.573214 -0.581168 -0.585577 -0.579497 -0.577288 -0.57169 -0.563758 -0.557806 -0.556142 -0.552331 -0.548428 -0.546911 -0.540659 -0.537567 -0.544468 -0.541351 -0.53945 -0.538605 -0.531841 -0.530445 -0.528622 -0.529028 -0.53084 -0.53651 -0.541297 -0.542115 -0.540631 -0.537454 -0.537122 -0.54189 -0.545461 -0.548849 -0.55382 -0.555604 -0.554362 -0.554739 -0.555843 -0.558383 -0.559257 -0.5562 -0.553871 -0.55004 -0.546814 -0.545404 -0.543706 -0.537805 -0.533254 -0.529026 -0.526149 -0.522464 -0.518078 -0.512332 -0.50576 -0.500022 -0.495381 -0.492108 -0.486529 -0.482212 -0.477382 -0.472437 -0.469068 -0.466327 -0.465693 -0.463253 -0.459644 -0.457194 -0.453687 -0.451236 -0.449746 -0.44851 -0.447962 -0.447949 -0.447053 -0.445688 -0.444733 -0.443907 -0.443275 -0.44297 -0.442392 -0.442216 -0.441856 -0.441397 -0.440861 -0.439831 -0.43905 -0.438286 -0.437087 -0.436465 -0.435278 -0.43439 -0.432687 -0.431827 -0.430092 -0.42894 -0.426566
275.5175 0.00025 -0.616233 -0.64358 -0.695894 -0.737691 -0.754129 -0.777364 -0.785823 -0.7904 -0.784425 -0.782364 -0.776375 -0.768199 -0.76225 -0.759612 -0.755967 -0.752192 -0.750233 -0.744346 -0.741264 -0.747915 -0.745071 -0.743632 -0.742548 -0.735581 -0.733993 -0.732271 -0.73279 -0.734494 -0.740175 -0.744734 -0.745335 -0.744146 -0.741189 -0.740828 -0.745369 -0.749069 -0.752564 -0.757656 -0.759495 -0.758155 -0.758422 -0.759752 -0.762336 -0.762772 -0.759423 -0.757141 -0.75319 -0.749926 -0.748811 -0.747327 -0.741257 -0.736554 -0.732408 -0.729403 -0.725615 -0.721222 -0.715573 -0.708968 -0.70321 -0.698529 -0.695391 -0.689945 -0.685443 -0.680641 -0.675837 -0.672447 -0.669607 -0.668957 -0.666554 -0.662865 -0.660432 -0.656956 -0.6544 -0.652818 -0.651559 -0.650999 -0.65102 -0.650153 -0.64874 -0.647762 -0.646916 -0.646287 -0.645995 -0.645404 -0.645238 -0.644895 -0.644422 -0.643866 -0.642832 -0.642059 -0.641293 -0.640086 -0.63946 -0.638253 -0.63736 -0.635644 -0.634772 -0.633033 -0.631878 -0.629506
275.52 0.00025 -0.520682 -0.548411 -0.600582 -0.643812 -0.659659 -0.682796 -0.692098 -0.696713 -0.69071 -0.689149 -0.682938 -0.674492 -0.668596 -0.665423 -0.662008 -0.658108 -0.65637 -0.650815 -0.647586 -0.653846 -0.651133 -0.65003 -0.648617 -0.641438 -0.639605 -0.637953 -0.63859 -0.640014 -0.645751 -0.650313 -0.650651 -0.649764 -0.647388 -0.646979 -0.651549 -0.655248 -0.658667 -0.664083 -0.666157 -0.664471 -0.664858 -0.666558 -0.669335 -0.669463 -0.665808 -0.663558 -0.659668 -0.656356 -0.655326 -0.654322 -0.648183 -0.643272 -0.639035 -0.63583 -0.631918 -0.627525 -0.621984 -0.615505 -0.609754 -0.604867 -0.601791 -0.596451 -0.591908 -0.587079 -0.582249 -0.578852 -0.575938 -0.575287 -0.572977 -0.569265 -0.56686 -0.56342 -0.560808 -0.559151 -0.557831 -0.557237 -0.55731 -0.556479 -0.555046 -0.554025 -0.553163 -0.552539 -0.552257 -0.551653 -0.551484 -0.551157 -0.550692 -0.550121 -0.549086 -0.548305 -0.547527 -0.546312 -0.54569 -0.544481 -0.543587 -0.541884 -0.541009 -0.539267 -0.538123 -0.535758
275.5225 0.00025 0.00703089 -0.0210093 -0.0729605 -0.11692 -0.132545 -0.155006 -0.165376 -0.170004 -0.163922 -0.162938 -0.155999 -0.147165 -0.141665 -0.137791 -0.134374 -0.130647 -0.128842 -0.123898 -0.120348 -0.126388 -0.124123 -0.123707 -0.122154 -0.114951 -0.112908 -0.11114 -0.111712 -0.113241 -0.119062 -0.123579 -0.123403 -0.122739 -0.120926 -0.120422 -0.124826 -0.128749 -0.132181 -0.13772 -0.139932 -0.138107 -0.138321 -0.139963 -0.143039 -0.14293 -0.139003 -0.13701 -0.133033 -0.129736 -0.129016 -0.12826 -0.122151 -0.117034 -0.112767 -0.10953 -0.105588 -0.101103 -0.0956665 -0.0893069 -0.0836293 -0.0785857 -0.075551 -0.0703128 -0.0656366 -0.060775 -0.0560772 -0.0527484 -0.0497399 -0.0490537 -0.0468218 -0.0430706 -0.0406626 -0.0372927 -0.0346053 -0.0329059 -0.031571 -0.0309502 -0.0310371 -0.0302258 -0.0287795 -0.0277365 -0.026866 -0.0262547 -0.025991 -0.0253723 -0.0252008 -0.0248926 -0.0244227 -0.0238518 -0.022819 -0.0220343 -0.0212553 -0.0200311 -0.0193883 -0.0181765 -0.0172711 -0.0155732 -0.014704 -0.0129735 -0.0118352 -0.00946231
275.525 0.00025 0.464088 0.435574 0.384282 0.339416 0.324021 0.302325 0.290468 0.28505 0.291447 0.292412 0.300115 0.309134 0.314712 0.319265 0.322599 0.326315 0.328266 0.333015 0.336267 0.330499 0.332551 0.332542 0.334271 0.341633 0.34379 0.34554 0.344761 0.343457 0.337603 0.333304 0.333694 0.33392 0.335226 0.335887 0.331671 0.327533 0.324263 0.318691 0.316194 0.318021 0.318032 0.31626 0.313263 0.313633 0.318009 0.31983 0.323643 0.326897 0.327352 0.327704 0.333749 0.339079 0.343486 0.346877 0.350998 0.355673 0.361108 0.367424 0.373104 0.37829 0.381333 0.38642 0.391173 0.396077 0.400795 0.404039 0.407094 0.407804 0.410004 0.413802 0.416219 0.41953 0.422264 0.424042 0.425412 0.42604 0.425922 0.426722 0.428184 0.429233 0.430131 0.430748 0.431001 0.43163 0.431794 0.43208 0.432552 0.433145 0.43419 0.434971 0.435744 0.436966 0.437608 0.438821 0.439735 0.441429 0.442302 0.444045 0.445175 0.447548
275.5275 0.00025 0.69662 0.667565 0.616146 0.570493 0.555301 0.534698 0.521708 0.516418 0.522399 0.523999 0.532376 0.54147 0.546967 0.552172 0.555642 0.559716 0.561824 0.566088 0.56944 0.563971 0.565857 0.56551 0.567473 0.574876 0.577098 0.578893 0.57801 0.576982 0.571027 0.566914 0.567671 0.567606 0.56833 0.569192 0.565184 0.560977 0.557749 0.552167 0.549544 0.551644 0.551657 0.549739 0.546549 0.547096 0.551597 0.553181 0.557094 0.560433 0.560786 0.560751 0.566786 0.572026 0.576517 0.580004 0.584203 0.588923 0.594301 0.600513 0.606049 0.61136 0.614417 0.619429 0.624221 0.629111 0.63378 0.63697 0.640115 0.640864 0.643033 0.646829 0.649257 0.652538 0.655334 0.657192 0.658587 0.659247 0.659104 0.659852 0.661315 0.662384 0.663302 0.663904 0.664134 0.664779 0.664949 0.665224 0.665687 0.666293 0.667324 0.668107 0.668891 0.670122 0.670769 0.671988 0.672895 0.674597 0.675467 0.677213 0.678344 0.680715
275.53 0.00025 0.723697 0.694149 0.643726 0.597389 0.581837 0.563054 0.549167 0.543461 0.549364 0.550778 0.560205 0.569496 0.574952 0.580868 0.584029 0.58796 0.59007 0.593779 0.596859 0.591526 0.593053 0.592065 0.59403 0.601469 0.603958 0.605647 0.604771 0.603827 0.59794 0.594052 0.595286 0.594806 0.594975 0.596036 0.592158 0.587788 0.584701 0.579231 0.576308 0.578334 0.578196 0.576251 0.572859 0.573759 0.578791 0.580242 0.584056 0.587281 0.587554 0.587443 0.593322 0.598734 0.603371 0.607 0.611262 0.616237 0.621655 0.62776 0.63324 0.638687 0.641781 0.646681 0.651506 0.656473 0.661087 0.664239 0.667407 0.668259 0.670347 0.674171 0.676611 0.67986 0.682682 0.684613 0.686061 0.686738 0.68656 0.687298 0.688786 0.689881 0.690816 0.691396 0.691604 0.692252 0.692422 0.692669 0.693126 0.693744 0.694778 0.695569 0.696357 0.697593 0.698258 0.699483 0.700388 0.702088 0.702958 0.704706 0.705837 0.708214
275.5325 0.00025 0.574485 0.544822 0.494719 0.44758 0.43169 0.413326 0.398836 0.392754 0.397852 0.398736 0.408447 0.418517 0.424568 0.430763 0.433408 0.437139 0.439561 0.442756 0.445625 0.440683 0.44174 0.440422 0.442425 0.449729 0.452317 0.453924 0.453071 0.452311 0.446445 0.442666 0.444162 0.443253 0.442794 0.443729 0.439979 0.435611 0.43279 0.427311 0.424229 0.426321 0.426206 0.424161 0.420866 0.422048 0.427543 0.4287 0.432305 0.43566 0.435907 0.435468 0.44133 0.446652 0.451513 0.455488 0.45982 0.464952 0.47037 0.476368 0.481804 0.487305 0.490416 0.495203 0.500054 0.505093 0.509787 0.51291 0.516108 0.516974 0.519014 0.522828 0.525289 0.528468 0.531341 0.533345 0.534812 0.535522 0.535347 0.536065 0.537559 0.53866 0.539613 0.540207 0.540398 0.541053 0.541237 0.541457 0.541932 0.542566 0.543591 0.544368 0.545145 0.546378 0.547058 0.54829 0.549203 0.550903 0.551782 0.553528 0.554657 0.557032
275.535 0.00025 0.396276 0.366492 0.316542 0.268944 0.25285 0.235612 0.220448 0.214438 0.219356 0.219566 0.229397 0.240477 0.247219 0.253836 0.256355 0.260466 0.262904 0.265803 0.268725 0.264155 0.265082 0.263436 0.265607 0.272948 0.275852 0.277488 0.276621 0.275815 0.269897 0.266307 0.268099 0.266855 0.265967 0.267038 0.26324 0.258821 0.255921 0.250622 0.247391 0.24923 0.248933 0.246862 0.243381 0.244658 0.250647 0.251818 0.25537 0.258518 0.258666 0.258062 0.26379 0.269111 0.274033 0.277953 0.282268 0.287593 0.293038 0.299005 0.304203 0.309851 0.313124 0.317833 0.32257 0.327554 0.332249 0.335338 0.338579 0.339519 0.341543 0.345357 0.347833 0.350981 0.353925 0.35603 0.357557 0.358308 0.358101 0.358791 0.360274 0.361415 0.362403 0.362995 0.36318 0.363857 0.364054 0.364269 0.36473 0.36538 0.366407 0.367181 0.367967 0.369202 0.369875 0.371106 0.372023 0.373719 0.374594 0.376354 0.377471 0.379847
275.5375 0.00025 0.331483 0.301225 0.251551 0.202928 0.186258 0.169671 0.153647 0.147762 0.151853 0.151757 0.16204 0.173515 0.179905 0.186932 0.189248 0.193812 0.196658 0.199215 0.201884 0.197345 0.197995 0.195886 0.198215 0.205639 0.208673 0.210437 0.209392 0.208677 0.202614 0.199327 0.201511 0.19993 0.198371 0.199533 0.195803 0.19144 0.188666 0.183726 0.180319 0.18205 0.181598 0.17948 0.17606 0.177296 0.18354 0.184455 0.187677 0.19118 0.191416 0.190574 0.196343 0.201512 0.206611 0.210876 0.215135 0.220662 0.226078 0.231955 0.237108 0.242742 0.24612 0.250738 0.255476 0.26045 0.265214 0.268263 0.271481 0.27251 0.274483 0.278248 0.280732 0.283829 0.286811 0.28898 0.290523 0.291303 0.291084 0.291742 0.293229 0.294381 0.295387 0.295978 0.296137 0.296821 0.297015 0.29721 0.297665 0.298322 0.299351 0.30013 0.300922 0.302169 0.302847 0.304089 0.305006 0.306699 0.307559 0.309323 0.310437 0.312812
275.54 0.00025 0.335561 0.305347 0.256022 0.206188 0.189655 0.174186 0.158093 0.152324 0.155667 0.154968 0.165781 0.178062 0.185179 0.192527 0.194551 0.199491 0.201903 0.203821 0.206517 0.202139 0.202613 0.200406 0.202785 0.210075 0.213481 0.215459 0.214518 0.213897 0.208008 0.204865 0.207294 0.205437 0.203525 0.204484 0.200738 0.196382 0.193728 0.189182 0.185803 0.18715 0.186481 0.184285 0.180744 0.1821 0.189027 0.190101 0.193148 0.196473 0.196512 0.195515 0.201038 0.206156 0.211331 0.215776 0.22014 0.225967 0.231594 0.237477 0.242551 0.248297 0.251742 0.256331 0.260956 0.265883 0.27071 0.273786 0.277113 0.278211 0.280195 0.283958 0.286455 0.289483 0.292484 0.294701 0.296293 0.29709 0.296849 0.297504 0.298986 0.300158 0.301207 0.301795 0.301924 0.302622 0.302823 0.302985 0.303444 0.304119 0.305149 0.305935 0.30672 0.307974 0.308668 0.309911 0.310833 0.31252 0.313385 0.315139 0.31625 0.318627
275.5425 0.00025 0.230795 0.200396 0.150327 0.100899 0.0831516 0.0696207 0.0543876 0.0486474 0.050807 0.0496954 0.0606672 0.0734967 0.0811641 0.0882038 0.0898613 0.0954829 0.0981283 0.0996712 0.102157 0.0980308 0.0981944 0.095875 0.0982089 0.105241 0.108875 0.110986 0.109829 0.109252 0.103486 0.10048 0.103053 0.100918 0.0987619 0.0997315 0.0958094 0.0917761 0.0890789 0.0847633 0.0814674 0.082711 0.0818098 0.0796312 0.0762175 0.0772218 0.0842207 0.08534 0.0881566 0.0915167 0.0916065 0.0903995 0.0958093 0.100713 0.105898 0.110565 0.114932 0.121031 0.12679 0.132619 0.137534 0.143136 0.146733 0.151319 0.155874 0.160747 0.16564 0.168825 0.172106 0.173241 0.175118 0.178829 0.181362 0.184371 0.187401 0.189691 0.191333 0.192205 0.191953 0.192577 0.194074 0.19525 0.196317 0.196899 0.197024 0.197723 0.197925 0.198078 0.198523 0.199207 0.200238 0.201014 0.201792 0.203043 0.203743 0.204985 0.205902 0.207591 0.208467 0.210229 0.211333 0.213708
275.545 0.00025 0.0590007 0.0289011 -0.0204896 -0.0705744 -0.08946 -0.102062 -0.116494 -0.12239 -0.121487 -0.122604 -0.111275 -0.0979246 -0.089102 -0.0816117 -0.0801213 -0.0739547 -0.0709905 -0.0697561 -0.0674847 -0.071251 -0.0710424 -0.0734791 -0.0710623 -0.0644406 -0.0605368 -0.0581379 -0.059395 -0.0597343 -0.0651837 -0.0677955 -0.0650859 -0.067472 -0.0698298 -0.0692128 -0.0732262 -0.077037 -0.0796501 -0.0835652 -0.0867361 -0.0859432 -0.0869541 -0.0889962 -0.0923643 -0.091187 -0.0837187 -0.0823915 -0.0799885 -0.0767584 -0.0766054 -0.0778064 -0.072337 -0.067466 -0.0621266 -0.0572507 -0.0529735 -0.0467555 -0.0409516 -0.0351467 -0.0302808 -0.0247371 -0.0210958 -0.0164994 -0.0120191 -0.00727319 -0.0023603 0.000723141 0.00398821 0.00519476 0.00706319 0.0107124 0.0132571 0.016233 0.0192988 0.0216514 0.0233242 0.0242163 0.0239769 0.0245688 0.0260501 0.0272425 0.028341 0.0289202 0.0290264 0.0297355 0.0299343 0.0300672 0.0305082 0.0312021 0.0322356 0.0330213 0.0337994 0.0350405 0.0357498 0.0369921 0.0379122 0.0395962 0.0404706 0.0422447 0.0433472 0.0457328
275.5475 0.00025 -0.0493317 -0.0793899 -0.129101 -0.179368 -0.199814 -0.211726 -0.225385 -0.231251 -0.231975 -0.233489 -0.221325 -0.207286 -0.198108 -0.190772 -0.189856 -0.183091 -0.180318 -0.17969 -0.177436 -0.181003 -0.180913 -0.183426 -0.18096 -0.174597 -0.170484 -0.168167 -0.169401 -0.169809 -0.175341 -0.177671 -0.174951 -0.17747 -0.179887 -0.179498 -0.183735 -0.187367 -0.190073 -0.193765 -0.196941 -0.196448 -0.197803 -0.199881 -0.202984 -0.201959 -0.194403 -0.192973 -0.190612 -0.18741 -0.187194 -0.188587 -0.183305 -0.178578 -0.173269 -0.168257 -0.163891 -0.157388 -0.151317 -0.145418 -0.140617 -0.13511 -0.131329 -0.126769 -0.122271 -0.117653 -0.11273 -0.109421 -0.106065 -0.104762 -0.102887 -0.0992881 -0.0966954 -0.093762 -0.0906703 -0.0882568 -0.0865619 -0.0856487 -0.0859313 -0.0853636 -0.0838956 -0.0827136 -0.0815915 -0.0809868 -0.0808944 -0.0801703 -0.0799563 -0.079854 -0.079426 -0.0787026 -0.077672 -0.0768794 -0.0760983 -0.0748531 -0.0741403 -0.0728913 -0.0719486 -0.0702681 -0.0694083 -0.067637 -0.0665313 -0.0641475
275.55 0.00025 -0.0669283 -0.0971316 -0.147206 -0.197831 -0.218746 -0.229812 -0.242825 -0.248572 -0.250208 -0.252428 -0.239959 -0.225912 -0.215922 -0.208718 -0.208157 -0.2009 -0.198389 -0.197984 -0.195458 -0.198909 -0.199199 -0.201432 -0.198945 -0.192989 -0.188497 -0.185875 -0.187424 -0.187658 -0.192977 -0.195106 -0.192347 -0.195337 -0.197686 -0.197736 -0.202413 -0.205649 -0.208327 -0.211768 -0.214757 -0.214722 -0.216322 -0.218362 -0.221327 -0.220416 -0.212773 -0.210936 -0.20888 -0.206055 -0.205805 -0.20737 -0.202363 -0.197656 -0.192218 -0.187172 -0.182749 -0.175991 -0.169847 -0.164062 -0.159336 -0.153907 -0.150046 -0.145443 -0.140978 -0.136469 -0.131533 -0.128148 -0.124782 -0.123422 -0.121597 -0.118075 -0.115454 -0.112572 -0.109453 -0.107007 -0.105262 -0.104269 -0.104552 -0.103987 -0.102517 -0.101308 -0.10015 -0.0995425 -0.0994721 -0.0987441 -0.0985191 -0.0984238 -0.0979977 -0.0972696 -0.0962415 -0.0954536 -0.0946774 -0.0934241 -0.0927076 -0.0914458 -0.0905129 -0.0888313 -0.0879685 -0.0861993 -0.085103 -0.0827281
275.5525 0.00025 0.00823666 -0.0217332 -0.0717333 -0.1221 -0.143286 -0.153587 -0.166357 -0.172035 -0.175303 -0.17822 -0.165299 -0.15103 -0.140302 -0.133098 -0.132685 -0.124783 -0.122366 -0.122506 -0.12017 -0.123612 -0.124075 -0.126335 -0.12368 -0.118149 -0.113456 -0.110625 -0.112306 -0.112473 -0.117762 -0.119502 -0.116836 -0.119872 -0.122084 -0.122486 -0.127402 -0.130427 -0.133097 -0.136212 -0.138972 -0.139238 -0.141135 -0.143253 -0.145997 -0.144945 -0.137243 -0.135286 -0.133248 -0.130516 -0.13018 -0.131763 -0.126862 -0.122264 -0.116854 -0.111682 -0.107392 -0.100437 -0.0941382 -0.0883296 -0.083728 -0.0783403 -0.0742829 -0.0696896 -0.065212 -0.0608705 -0.0560194 -0.0525396 -0.0491016 -0.0476066 -0.0458194 -0.0423608 -0.0397557 -0.036878 -0.0337158 -0.0312187 -0.0294379 -0.0283975 -0.028667 -0.0281298 -0.0266626 -0.0254449 -0.0242674 -0.0236712 -0.0236229 -0.0228856 -0.0226398 -0.0225678 -0.0221422 -0.02141 -0.0203847 -0.0196058 -0.018834 -0.0175778 -0.0168408 -0.0155769 -0.0146473 -0.0129637 -0.0120959 -0.0103249 -0.00923078 -0.00686025
275.555 0.00025 0.215177 0.185347 0.134789 0.0836393 0.0617831 0.0527699 0.0404577 0.0345811 0.0295017 0.0261977 0.0392245 0.0532631 0.0651449 0.0719409 0.0719153 0.0805763 0.0826202 0.0819969 0.0843174 0.0813412 0.0806473 0.0784098 0.0810183 0.0861636 0.091011 0.0940526 0.0921769 0.0921126 0.0872363 0.0856917 0.088143 0.0850974 0.083042 0.0823449 0.0771158 0.0746401 0.0720595 0.0691082 0.0665965 0.0660808 0.0640803 0.0620287 0.0594538 0.0605043 0.0682166 0.0703507 0.0723776 0.0747726 0.0752132 0.0735847 0.078043 0.0828129 0.0882786 0.0934857 0.0977921 0.105014 0.11154 0.117386 0.121995 0.127235 0.131256 0.135808 0.140334 0.144499 0.149312 0.152966 0.156494 0.158048 0.159769 0.163136 0.165758 0.168575 0.171742 0.174297 0.176105 0.177181 0.176883 0.177416 0.178881 0.180101 0.181303 0.181919 0.181962 0.182706 0.182947 0.183008 0.18341 0.184163 0.185197 0.186001 0.186771 0.188022 0.188762 0.190031 0.190962 0.192634 0.19351 0.195302 0.196391 0.19877
275.5575 0.00025 0.466042 0.436272 0.385407 0.334304 0.311314 0.302989 0.291817 0.285756 0.27942 0.275756 0.288705 0.302289 0.315752 0.322675 0.322361 0.331331 0.333064 0.332228 0.334401 0.331625 0.330513 0.32827 0.331174 0.33589 0.341085 0.344373 0.342502 0.342503 0.337752 0.336305 0.338618 0.335352 0.333497 0.332342 0.326959 0.324604 0.321956 0.319087 0.316768 0.315823 0.313459 0.311585 0.309241 0.31049 0.317918 0.320366 0.322432 0.324415 0.324977 0.323463 0.327694 0.332211 0.337769 0.343022 0.34732 0.354563 0.361244 0.367063 0.371501 0.37677 0.380985 0.385505 0.389984 0.393989 0.398656 0.402367 0.405918 0.407513 0.409204 0.412435 0.415077 0.417874 0.421069 0.423673 0.425524 0.426654 0.426352 0.426883 0.428348 0.429569 0.430807 0.431431 0.43145 0.432192 0.432444 0.432486 0.432886 0.433649 0.434688 0.435496 0.436264 0.437518 0.438262 0.439533 0.440484 0.442151 0.443017 0.444807 0.445884 0.44826
275.56 0.00025 0.591051 0.561555 0.509926 0.45893 0.437136 0.429647 0.419134 0.412642 0.405211 0.400822 0.414049 0.426911 0.441313 0.448247 0.447717 0.457176 0.458709 0.457416 0.459597 0.457107 0.455699 0.45346 0.456469 0.46066 0.465942 0.469391 0.467358 0.467484 0.462927 0.461736 0.463785 0.46041 0.45883 0.457316 0.451576 0.449598 0.446869 0.444231 0.442119 0.440945 0.438283 0.436345 0.434107 0.435248 0.442495 0.444906 0.447076 0.448772 0.449433 0.448048 0.451894 0.456497 0.462223 0.467689 0.472057 0.479482 0.486226 0.492107 0.496529 0.501709 0.505969 0.510455 0.515067 0.51901 0.523589 0.527422 0.531147 0.53289 0.534563 0.537699 0.540365 0.543123 0.546324 0.548969 0.550858 0.552064 0.551781 0.552299 0.553748 0.554973 0.556258 0.556912 0.556928 0.557687 0.557966 0.557996 0.558381 0.559148 0.560195 0.56101 0.561783 0.563047 0.563791 0.565075 0.566028 0.567698 0.568564 0.570352 0.571429 0.573812
275.5625 0.00025 0.508643 0.478957 0.426581 0.374863 0.352779 0.34617 0.336586 0.3302 0.321984 0.317193 0.330372 0.343354 0.35891 0.366032 0.365535 0.375324 0.376581 0.375046 0.377084 0.374965 0.373294 0.371218 0.374254 0.377963 0.383459 0.386977 0.384819 0.385092 0.380711 0.379587 0.38145 0.377956 0.376664 0.374941 0.369067 0.367247 0.364542 0.36185 0.359939 0.358598 0.355727 0.353822 0.351711 0.353206 0.360119 0.362582 0.365022 0.366234 0.366791 0.365405 0.368818 0.373267 0.379083 0.38464 0.388864 0.396451 0.403349 0.409299 0.413756 0.418836 0.423201 0.427668 0.432325 0.436073 0.440492 0.444466 0.448261 0.450022 0.451664 0.454691 0.457351 0.460102 0.463329 0.465974 0.46789 0.469129 0.468844 0.469346 0.470791 0.472007 0.473303 0.473949 0.473947 0.474698 0.474976 0.474979 0.47536 0.476143 0.477189 0.478011 0.478795 0.48006 0.480832 0.482119 0.48308 0.484755 0.485623 0.487415 0.488497 0.49088
275.565 0.00025 0.40202 0.372562 0.320136 0.268312 0.24628 0.240057 0.230633 0.223769 0.214372 0.209489 0.222696 0.235061 0.25136 0.258625 0.257779 0.267573 0.268555 0.266625 0.268223 0.266277 0.264382 0.262543 0.265813 0.269185 0.274604 0.278224 0.275866 0.276253 0.272202 0.271264 0.272835 0.269163 0.268247 0.266252 0.26018 0.258469 0.255602 0.252907 0.250953 0.249549 0.246587 0.244808 0.242823 0.244358 0.251137 0.253653 0.256247 0.257245 0.257885 0.256739 0.259958 0.264253 0.270221 0.275862 0.280149 0.287794 0.294842 0.301001 0.305275 0.310292 0.314749 0.319103 0.323808 0.327528 0.331799 0.335783 0.339709 0.341624 0.343257 0.346161 0.348879 0.351626 0.35486 0.357538 0.359471 0.360777 0.360508 0.360997 0.36243 0.363655 0.364968 0.365629 0.365617 0.366377 0.366666 0.36666 0.367015 0.367811 0.368862 0.369695 0.370472 0.371734 0.372518 0.373805 0.374761 0.376417 0.377289 0.379087 0.380157 0.382539
275.5675 0.00025 0.354287 0.324982 0.271884 0.220141 0.198865 0.193533 0.184582 0.177982 0.168278 0.163158 0.176256 0.187797 0.204529 0.211647 0.211094 0.221117 0.222498 0.220661 0.22239 0.220666 0.218332 0.216553 0.220135 0.223023 0.228433 0.232311 0.22994 0.230553 0.226817 0.226011 0.22713 0.223325 0.222588 0.220389 0.214125 0.212597 0.209682 0.20703 0.205084 0.203735 0.200536 0.198617 0.196737 0.19849 0.204908 0.207152 0.210004 0.210688 0.211268 0.210292 0.213154 0.217209 0.223258 0.229069 0.233357 0.241109 0.248076 0.254286 0.258623 0.26357 0.268107 0.272441 0.277285 0.280925 0.285074 0.289147 0.293198 0.295289 0.296912 0.299741 0.302454 0.305179 0.308422 0.311114 0.313074 0.314442 0.31417 0.314637 0.316065 0.317277 0.318624 0.3193 0.319282 0.320036 0.320339 0.320334 0.320683 0.321474 0.322531 0.323372 0.324142 0.325408 0.326188 0.327474 0.328436 0.330099 0.330962 0.332762 0.333828 0.336215
275.57 0.00025 0.302514 0.272885 0.21906 0.167572 0.146845 0.141399 0.132206 0.125118 0.114866 0.109489 0.122416 0.13274 0.149737 0.157176 0.156789 0.166889 0.16765 0.165725 0.167323 0.166242 0.163867 0.162089 0.165842 0.168611 0.173988 0.17787 0.175314 0.175894 0.172361 0.171529 0.17257 0.168635 0.168149 0.165963 0.159645 0.157944 0.155093 0.152462 0.150432 0.148936 0.145572 0.143705 0.1417 0.143492 0.149675 0.151987 0.154956 0.155617 0.15595 0.155237 0.157845 0.161627 0.16771 0.173824 0.178191 0.185755 0.192789 0.199228 0.203466 0.208413 0.213214 0.21758 0.222482 0.226126 0.229983 0.234087 0.238231 0.240396 0.24206 0.244736 0.247435 0.250094 0.253356 0.256069 0.25806 0.259493 0.259255 0.259745 0.261162 0.262382 0.263754 0.264454 0.264427 0.265187 0.265507 0.2655 0.265845 0.266649 0.267719 0.268584 0.269354 0.270625 0.271418 0.27272 0.273688 0.27536 0.276224 0.278026 0.279093 0.281472
275.5725 0.00025 0.229066 0.19947 0.145394 0.0941719 0.0739002 0.068647 0.0601749 0.0532272 0.0425423 0.0363946 0.0495328 0.0594986 0.0769682 0.0846904 0.0849462 0.0947525 0.0953661 0.09344 0.0949871 0.094028 0.0913924 0.0897925 0.0936328 0.0960868 0.101597 0.105273 0.102814 0.103704 0.100472 0.0998019 0.100454 0.0963794 0.0962543 0.094004 0.087491 0.0858409 0.082893 0.0799996 0.0779662 0.0765447 0.0731179 0.0714995 0.0698445 0.0718153 0.0778954 0.0797988 0.0829921 0.0834884 0.0836986 0.0829592 0.0855638 0.0891626 0.0953204 0.101555 0.105982 0.113614 0.120658 0.12725 0.131461 0.136401 0.141233 0.145533 0.150531 0.154143 0.157937 0.162025 0.166313 0.168647 0.170331 0.172904 0.175583 0.178249 0.181511 0.184218 0.18624 0.187738 0.187498 0.187966 0.18938 0.190574 0.19195 0.192658 0.19262 0.193377 0.193698 0.193679 0.194013 0.194827 0.195904 0.19677 0.19755 0.198819 0.199629 0.200936 0.201913 0.203562 0.204424 0.206232 0.207301 0.209685
275.575 0.00025 0.168066 0.138445 0.0837411 0.0326335 0.0130232 0.00757904 -0.00104514 -0.00774997 -0.0190331 -0.0257922 -0.013284 -0.00366294 0.0140013 0.0218713 0.0226606 0.0322429 0.0326446 0.0308469 0.0324324 0.0316765 0.0288003 0.0272892 0.0313427 0.0333701 0.0386844 0.0423195 0.0396653 0.0407114 0.0378636 0.0371857 0.0374751 0.0332236 0.0332945 0.0310974 0.0244717 0.0228501 0.0199524 0.0172351 0.0150161 0.0137924 0.0102353 0.00876833 0.0067957 0.0087327 0.0147801 0.0164822 0.0197152 0.0202457 0.0203033 0.0198099 0.0221343 0.0252875 0.0312796 0.0378585 0.0424536 0.0499422 0.0567744 0.063479 0.0677344 0.0725962 0.0775938 0.0818311 0.0868926 0.0905247 0.0941352 0.0982051 0.102498 0.105004 0.106725 0.109186 0.111849 0.114518 0.11781 0.120506 0.122559 0.124132 0.123925 0.124386 0.1258 0.126974 0.128393 0.129116 0.129069 0.129824 0.130157 0.130132 0.130453 0.131257 0.132336 0.133225 0.134005 0.135269 0.136092 0.137407 0.13839 0.140033 0.140897 0.142712 0.143768 0.146156
275.5775 0.00025 0.164001 0.134252 0.0789259 0.0283291 0.0096707 0.00397834 -0.00425178 -0.0110469 -0.0220147 -0.0290325 -0.0175426 -0.00861754 0.00910749 0.0174131 0.0189105 0.0283272 0.0284874 0.0267206 0.02807 0.027576 0.0248854 0.0235978 0.0277095 0.0293427 0.034422 0.0379823 0.0351404 0.0362423 0.033745 0.0331316 0.0330787 0.0286262 0.0289908 0.0268993 0.020369 0.0186112 0.0157295 0.0128035 0.0104203 0.00923298 0.00571492 0.00428974 0.0025698 0.00428665 0.0104111 0.0119269 0.0152457 0.0158778 0.0157596 0.0152397 0.0177355 0.0206873 0.0265787 0.0333236 0.0380315 0.0454678 0.0523147 0.0592382 0.0635753 0.0683907 0.0735754 0.0778917 0.0829737 0.0866719 0.0901535 0.094193 0.0986539 0.101275 0.103038 0.10538 0.108031 0.110652 0.113918 0.116577 0.118612 0.120233 0.120059 0.120516 0.121891 0.123063 0.124514 0.125279 0.12523 0.125961 0.12631 0.126268 0.126566 0.127371 0.128445 0.129336 0.130111 0.131371 0.132195 0.133505 0.13449 0.136138 0.137009 0.138829 0.139885 0.14227