275.5025 0.00025 -27.9929 -103.965 -95.8811 -67.6525 -49.5713 -2.34678 30.0134 31.3366 41.4341 45.1595 25.9783 24.3779 25.6293 25.6003 46.5035 54.3414 58.4285 53.5883 72.2273 78.7076 102.255 102.404 85.7236 73.3891 54.7308 54.6833 49.5614 64.8131 78.4025 95.8815 118.9 143.744 140.703 137.591 138.497 139.125 148.851 131.305 118.447 113.145 110.438 114.375 100.64 96.9537 116.927 138.176 141.355 174.482 192.564 198.837 192.073 207.208 223.012 250.424 270.885 287.125 278.126 263.191 253.823 250.544 247.979 235.939 238.453 255.482 258.426 273.767 283.267 295.128 303.458 282.457 241.498 163.873 100.459 68.6357 60.7586 77.2155 87.6424 98.903 114.277 134.693 151.263 172.62 172.635 165.894 159.48 150.813 135.585 129.316 126.531 111.856 92.391 66.327 47.4584 35.4487 29.0798 32.7528 35.6948 56.2582 34.7969 90.8313
275.505 0.00025 -21.2245 -105.452 -93.7984 -68.7196 -51.4194 -1.75694 28.9444 26.9312 43.8007 48.009 28.1937 26.8172 27.4956 23.2657 45.6017 54.7855 59.7073 55.4983 71.4433 79.4755 102.456 101.483 85.5558 71.3764 53.0146 50.3751 44.512 59.9113 73.788 90.6401 115.021 144.696 143.122 135.371 138.107 136.509 144.042 130.781 116.784 111.907 111.263 112.269 98.7136 93.5934 114.915 138.045 140.721 172.293 191.801 199.032 190.805 205.214 219.815 246.62 268.544 288.86 282.275 266.771 256.78 252.477 251.272 239.968 240.113 257.479 261.611 272.927 279.901 291.975 302.441 283.167 244.493 167.533 102.475 68.7348 59.5462 75.4109 86.205 97.3973 112.611 133.18 150.217 171.452 172.219 165.921 160.327 152.191 137.151 130.746 127.97 113.462 94.1401 67.9323 49.0612 36.9683 30.2152 33.805 36.7707 57.1481 35.2047 91.6319
275.5075 0.00025 -14.6628 -106.18 -91.118 -70.7306 -53.064 -2.47433 27.352 22.6709 45.7635 50.3535 29.6293 28.7532 28.8623 20.7365 44.1058 55.2776 60.7304 57.4099 70.1427 79.4577 102.157 100.519 85.3513 69.261 51.2941 45.7477 38.8191 54.5139 68.2834 84.5179 110.839 145.238 145.431 133.299 137.594 133.807 139.653 130.875 116.744 111.48 113.117 110.975 97.2826 90.8394 112.997 137.518 140.642 170.02 190.288 199.422 189.945 202.979 216.259 241.797 265.226 289.739 286.44 270.948 260.6 254.847 255.011 244.911 242.879 261.304 268.404 276.246 280.072 291.281 302.735 284.763 248.69 172.653 105.718 69.7059 59.1563 74.478 85.5585 96.6144 111.335 131.617 148.926 169.971 171.103 164.838 159.772 152.289 137.717 131.499 129.286 115.356 96.2465 69.9133 50.9682 38.7656 31.6881 35.2508 38.1626 58.2775 36.0117 94.1207
275.51 0.00025 -8.26387 -105.904 -88.2489 -73.3373 -54.7344 -4.56676 25.5636 18.9048 47.49 52.6682 30.9081 30.2752 29.5749 17.9665 41.8123 55.0973 61.0212 59.0915 68.4557 77.9746 100.26 98.2798 84.5719 66.6584 49.6283 41.505 33.0572 49.1183 62.5693 78.1557 106.991 145.578 147.58 131.317 136.89 131.107 135.617 131.219 117.672 111.465 115.37 110.107 96.492 89.1195 112.231 137.629 141.795 168.604 188.827 200.09 189.917 200.919 212.99 236.382 260.458 288.062 288.435 273.156 262.887 255.301 256.849 248.086 242.906 260.589 271.211 277.821 281.001 292.366 304.721 287.088 253.249 178.562 109.998 71.6528 59.5882 74.1064 85.2185 96.1684 110.492 130.413 147.723 168.382 169.743 163.33 158.612 151.635 137.434 131.341 129.968 117.155 98.561 72.1153 52.9009 40.5031 33.1566 36.6185 39.2978 58.9682 36.3438 96.2604
275.5125 0.00025 -3.7147 -104.767 -85.7102 -76.074 -55.7592 -7.68773 24.2206 15.5033 48.9789 55.0189 32.8776 32.2827 30.3794 16.2359 39.2134 54.6632 61.1324 60.9811 66.7842 75.8062 97.5929 95.3865 83.5077 63.7714 47.8899 37.9612 27.8647 44.2438 57.2965 72.5426 104.038 146.084 149.871 130.687 136.893 128.632 132.064 131.392 118.889 111.642 117.195 109.303 96.2219 88.5527 112.327 137.983 144.03 168.833 188.775 201.384 190.97 198.904 210.078 231.094 255.238 285.059 289.196 274.144 264.327 254.574 257.02 250.049 241.902 257.058 269.986 275.138 277.511 289.497 303.831 287.254 256.141 183.682 114.489 74.1758 60.6473 74.0888 84.9263 95.5641 109.533 129.351 146.758 166.924 168.572 162.019 157.589 151.046 137.175 131.088 130.361 118.712 100.795 74.3315 54.763 41.8956 34.2261 37.6606 40.0398 59.2317 36.2358 97.036
275.515 0.00025 0.873293 -103.142 -83.928 -78.4721 -56.7482 -12.1699 22.5213 12.3259 50.7215 57.0951 35.1515 34.6728 31.3476 15.7341 36.57 53.8983 61.2823 62.9324 65.5074 73.444 94.9216 92.353 82.2951 60.9597 46.5185 35.3492 23.9177 40.5029 52.6036 67.8955 101.875 146.392 151.868 131.33 137.365 126.649 129.278 131.334 120.457 112.192 118.639 108.473 95.7623 88.371 112.156 137.625 145.798 168.61 188.404 202.676 193.174 197.33 207.704 226.513 250.494 282.143 290.055 275.335 266.257 253.851 256.253 251.367 240.77 252.69 267.242 271.078 272.308 284.108 300.26 285.393 257.255 187.755 119.005 77.0156 62.1952 74.64 85.1479 95.3646 108.73 128.428 146.032 165.997 167.883 161.217 157.041 150.777 137.111 130.789 130.344 119.586 102.28 75.9542 56.1807 42.7504 34.6685 38.0336 40.0535 58.9208 35.613 96.8939
275.5175 0.00025 4.92846 -101.718 -83.1385 -80.4514 -57.54 -17.5934 20.4503 10.0174 52.9201 58.8164 37.2522 37.0201 32.3535 16.7846 34.3335 53.2196 61.6201 64.8621 64.7803 70.9822 92.056 89.5183 81.6091 58.6213 45.5287 33.27 21.1611 37.5373 48.0799 63.6514 100.053 146.37 153.315 132.523 137.353 124.107 126.642 130.76 122.667 113.537 119.704 107.472 94.6507 87.9483 111.473 137.138 147.294 167.606 186.489 202.087 195.476 196.384 206.126 223.025 246.198 279.154 290.958 276.477 268.185 252.58 254.463 251.906 239.435 247.977 263.611 266.741 267.441 278.669 296.217 282.976 257.56 191.03 123.132 79.4212 63.3252 75.1146 85.7386 95.8565 108.77 128.145 145.547 165.505 167.629 160.834 156.946 150.937 137.349 130.491 129.941 119.792 103.101 77.1165 57.249 43.31 34.6878 37.7264 39.412 57.9366 34.3716 95.9592
275.52 0.00025 8.51766 -100.832 -82.8553 -81.3595 -57.8558 -22.9019 18.4986 8.89883 55.8924 61.0394 39.9449 39.5918 33.4179 19.0719 32.7115 52.8094 62.019 66.9227 64.2095 68.3769 89.375 87.1922 81.0726 56.6873 44.9484 31.7466 19.0684 34.4671 43.0575 59.1535 97.9637 145.483 153.672 133.673 136.611 121.013 123.963 129.669 124.341 115.094 120.206 105.992 93.0197 87.3005 110.523 136.615 148.629 166.878 184.488 200.066 197.334 195.666 204.457 220.053 241.634 274.694 290.393 276.42 269.491 250.723 251.894 251.783 238.552 243.576 259.569 262.369 263.12 273.406 291.898 280.108 256.98 193.1 126.28 80.921 63.4913 74.6635 85.7282 96.03 109.005 128.326 145.524 165.34 167.62 160.702 156.94 151.415 138.017 130.523 129.582 119.999 103.899 78.3152 58.5498 44.2235 34.9615 37.4017 38.696 56.6218 32.6343 94.4884
275.5225 0.00025 11.4136 -99.7231 -82.7004 -81.1119 -58.4135 -28.0566 15.6843 8.36475 58.9784 63.3306 43.0825 42.0723 34.6347 22.5974 31.8942 52.6237 62.644 69.0113 64.101 66.0463 87.1132 85.2489 80.695 55.5721 45.0235 30.8924 17.6175 31.6339 37.7662 54.3811 95.0615 143.097 152.528 134.595 135.043 117.66 121.211 128.111 125.772 116.912 120.108 104.109 91.5183 86.9532 109.743 136.146 149.825 166.35 183.109 198.091 199.095 195.603 202.611 217.518 237.196 269.636 288.891 275.813 270.663 249.327 249.56 251.802 238.683 240.059 255.386 257.988 259.267 268.218 287.241 276.868 255.588 194.17 128.744 81.9167 63.0144 73.186 84.5908 95.0785 108.487 128.239 145.653 165.386 167.962 160.858 156.977 151.859 138.706 130.85 129.539 120.497 104.884 79.4012 59.7894 45.3577 35.6437 37.5662 38.4407 55.8272 31.4539 93.3096
275.525 0.00025 13.4503 -99.1092 -83.1378 -80.2343 -59.9518 -33.4172 10.7262 7.72816 61.8051 65.7436 46.5189 44.5502 35.6444 27.0995 31.6548 52.4365 63.7388 71.816 65.279 64.1022 85.1016 83.8193 80.4443 55.2206 45.581 30.4973 16.8376 28.9308 32.5231 49.8838 92.1278 139.7 149.822 135.19 132.593 114.146 118.481 125.917 126.615 118.916 119.497 102.518 90.2119 86.7929 109.016 135.66 150.753 165.366 181.597 195.984 200.178 196.4 201.122 215.817 233.177 264.981 287.396 275.802 272.556 249.256 248.024 252.051 239.733 238.101 251.955 254.062 256.238 263.687 283 273.877 254.014 194.952 131.093 82.838 62.4423 71.3074 82.8261 93.374 107.117 127.466 145.539 165.16 168.117 161.265 157.621 152.776 139.895 131.877 130.148 121.348 106.054 80.5732 61.0254 46.5678 36.5308 38.2103 38.8833 56.0018 31.2345 92.6894
275.5275 0.00025 14.0112 -98.8017 -83.6958 -79.1533 -61.6337 -38.0695 4.33179 6.78623 63.9231 67.3394 49.9256 46.3841 36.577 32.0804 32.189 52.5775 64.999 74.7878 67.3662 62.8296 83.6896 83.2309 80.6353 55.8072 46.2976 30.3129 16.5516 26.5473 27.7497 46.2158 89.8137 135.769 146.12 135.709 129.606 110.681 115.676 123.334 127.067 121.25 119.016 101.588 89.2526 86.8561 108.373 135.179 151.394 163.926 179.676 193.279 199.662 197.347 199.772 215.228 230.214 261.001 286.447 277.002 275.732 250.98 247.871 253.493 242.206 238.692 250.704 251.875 255.107 260.725 280.111 272.232 253.206 196.027 133.682 84.0405 62.1628 69.6584 81.2994 91.7955 105.52 126.119 144.707 164.259 167.677 161.344 158.366 154.041 141.62 133.487 131.493 122.886 107.841 82.3215 62.7254 48.098 37.7046 39.368 40.1129 57.1389 31.891 93.8634
275.53 0.00025 12.9215 -98.97 -84.4318 -77.3413 -62.5042 -41.2261 -2.30881 7.85284 65.7474 68.5625 53.194 47.1698 37.4131 36.5691 33.0017 52.9592 66.094 76.9062 68.9738 61.4629 81.8691 82.5496 80.337 56.4878 46.7216 29.98 16.4291 24.2589 23.1887 42.5273 87.1547 131.181 142.014 136.308 126.472 107.319 112.903 120.781 127.043 123.544 118.504 100.809 88.2045 86.902 108.115 134.967 152.095 162.371 177.534 190.422 197.718 197.947 198.033 214.824 228.498 258.108 286.317 279.539 280.522 254.738 249.839 256.858 246.603 241.92 252.681 253.21 257.188 260.243 278.901 272.214 254.006 198.527 137.455 86.0585 62.6016 68.7252 80.3884 90.858 104.252 124.627 143.446 162.92 166.633 160.405 157.78 154.099 142.374 134.471 132.751 124.794 110.103 84.5073 64.7206 49.8623 39.1382 40.79 41.5592 58.3403 32.6401 96.3206
275.5325 0.00025 11.3177 -99.9821 -85.272 -75.3111 -63.1131 -43.9377 -8.89548 10.0927 67.1587 70.3016 57.1723 48.2125 39.3633 41.2735 34.5586 53.0901 66.8958 78.1205 70.2453 59.7526 79.6979 81.8417 79.4935 56.7392 46.7435 29.4857 16.2007 21.2257 17.6985 38.1945 83.7989 126.272 137.764 136.625 123.337 105.067 110.983 118.876 127.276 126.046 117.945 99.8815 87.2968 87.6072 108.823 135.293 153.272 161.198 175.709 188.32 195.024 198.088 195.973 213.567 226.055 254.549 285.1 281.35 285.004 259.005 252.575 260.32 251.406 245.425 254.859 255.69 261.854 263.161 280.671 274.243 256.215 202.346 142.523 89.274 64.0258 68.6095 79.9452 90.4076 103.523 123.573 142.326 161.57 165.241 158.873 156.371 153.172 142.06 134.387 133.264 126.467 112.45 86.8616 66.7 51.5281 40.531 42.1079 42.7301 59.0704 32.8274 98.1432
275.535 0.00025 9.35258 -101.055 -85.616 -73.7918 -63.5452 -46.8634 -15.3488 12.7007 67.6808 72.2163 61.651 49.6817 42.4403 46.5785 36.9914 53.0485 67.5377 78.5641 70.8927 57.7519 76.75 80.7257 78.5144 57.2212 46.5881 28.7507 15.8775 17.6523 12.532 34.8164 80.4845 120.701 132.925 136.291 120.316 103.713 109.586 117.416 127.624 128.912 118.214 99.9198 87.7179 89.6007 110.636 136.154 155.118 160.828 174.714 187.39 192.205 197.685 194.285 211.915 223.292 249.798 281.477 280.807 286.634 260.939 253.335 261.664 253.848 246.566 253.224 252.924 261.273 262.674 280.799 275.514 257.673 205.661 147.62 93.0247 65.9833 68.7925 79.5793 89.8822 102.758 122.674 141.317 160.246 164.011 157.582 155.09 152.23 141.699 134.142 133.375 127.707 114.516 89.1449 68.6224 52.8794 41.5599 43.131 43.5593 59.4223 32.6121 98.6605
275.5375 0.00025 7.95836 -102.206 -85.2805 -73.0084 -63.7324 -50.5539 -21.3386 15.2008 67.1917 73.9481 65.6618 51.1394 45.9115 51.7155 39.8564 53.0394 68.2368 78.6299 71.0648 55.5159 73.0611 78.4596 76.5354 57.3512 46.0767 27.8278 15.6417 14.8048 8.89544 32.7547 77.313 114.456 127.435 134.992 117.514 102.849 108.662 116.398 128.069 132.014 119.073 100.415 88.5768 92.4348 113.381 137.663 158.032 162.063 175.541 188.827 190.909 197.145 193.408 210.21 221.339 245.253 277.055 279.163 287.096 261.773 252.668 261.128 254.628 246.416 250.017 247.588 256.664 257.765 276.363 272.875 256.058 206.768 151.579 96.7161 68.2777 69.3317 79.4821 89.539 101.898 121.761 140.429 159.166 163.091 156.641 154.184 151.636 141.596 133.979 133.125 128.24 115.732 90.7102 70.0465 53.6569 41.9358 43.4691 43.645 59.1245 31.8373 98.2835
275.54 0.00025 7.00639 -102.84 -84.096 -73.0785 -62.838 -54.9042 -26.1546 17.5747 65.9426 75.5561 68.7477 52.5829 48.9286 55.7723 43.1803 53.1357 68.8839 78.215 70.9238 53.2796 69.0875 75.5226 73.7276 57.1707 45.7711 27.2523 15.5608 12.5646 6.21367 31.5919 74.3466 108.738 122.896 133.728 115.553 102.936 108.52 116.536 128.264 134.768 119.771 100.513 88.5472 94.9296 116.064 139.102 160.816 163.264 176.158 191.127 191.355 197.005 193.722 208.902 220.733 242.286 273.68 278.067 287.56 262.963 252.15 259.915 254.29 245.497 246.612 242.056 251.366 251.914 270.739 268.979 253.383 207.031 155.042 100.375 70.6753 70.2082 79.9967 90.0063 101.791 121.432 139.825 158.6 162.753 156.136 153.737 151.496 141.714 133.777 132.498 128.081 116.161 91.5602 70.8699 53.952 41.7503 43.0306 42.985 58.1147 30.4225 97.2569
275.5425 0.00025 6.5066 -103.091 -82.3995 -73.9151 -61.1101 -59.1045 -29.8197 19.0548 63.6674 76.8706 71.5467 54.7453 51.4722 58.7859 46.5038 53.1687 69.3616 77.344 70.5446 50.9392 64.8143 72.7022 71.0381 56.9293 45.5111 26.9511 15.8049 11.2559 4.69492 31.375 71.2829 103.468 119.183 131.98 114.357 104.111 108.943 117.524 128.533 137.147 120.374 100.421 88.0054 96.9885 118.228 139.727 162.834 163.967 175.131 191.735 191.342 195.818 194.281 207.945 221.204 240.532 271.096 277.598 287.918 264.031 251.666 258.363 253.51 244.448 243.358 236.715 245.855 245.934 264.888 264.632 249.998 206.241 157.401 103.164 72.3883 70.6151 80.3108 90.5353 102.19 121.906 139.791 158.529 162.888 156.094 153.663 151.752 142.31 133.963 132.03 127.969 116.637 92.5309 71.9299 54.6121 41.8451 42.5649 42.2103 56.7718 28.4803 95.7293
275.545 0.00025 5.5963 -102.209 -80.4045 -75.1638 -58.8649 -62.1397 -32.2302 20.3784 61.0431 77.9473 74.7828 58.2578 54.0797 61.4116 49.9595 53.4664 69.469 76.0883 70.1105 48.9746 60.9231 69.9631 68.2393 56.378 44.999 26.2958 16.0217 10.2709 3.68451 31.5982 68.127 98.2012 115.286 128.447 112.693 105.019 109.337 118.79 128.174 138.413 120.364 99.7881 86.9547 98.3631 120.114 140.078 164.745 165.201 174.186 191.588 191.12 193.401 194.172 206.575 221.634 238.96 267.968 276.312 287.316 264.3 250.804 256.266 252.441 243.495 240.463 231.595 240.196 240.011 258.909 260.013 246.054 204.558 158.708 105.141 73.3229 70.017 79.5572 90.0719 102.014 122.254 140.006 158.812 163.366 156.498 153.73 152.059 143.059 134.546 131.953 128.258 117.523 93.6574 73.1727 55.6534 42.5071 42.7109 41.9339 55.9166 27.0791 94.4801
275.5475 0.00025 3.55611 -100.194 -78.4462 -76.56 -56.3975 -63.3008 -32.8446 22.0783 58.7041 78.9571 78.5996 62.9444 57.2055 63.8137 53.924 54.3032 69.3834 74.7832 69.7083 47.7354 57.5765 67.2807 65.6991 56.1157 44.9183 25.6472 15.8147 8.73724 2.36585 31.6117 64.6448 92.8212 111.042 123.482 111.32 105.848 109.605 119.858 127.136 138.331 119.619 98.9664 85.8483 99.4229 121.887 140.545 166.122 166.594 173.884 191.954 192.172 191.108 193.644 205.175 222.145 238.202 264.842 274.751 286.05 264.444 250.507 254.596 251.823 243.278 238.403 227.026 234.551 234.359 253.222 255.683 242.125 202.591 159.591 106.729 73.8689 68.7345 77.8723 88.5735 100.831 121.772 139.954 158.978 163.793 157.073 154.141 152.648 144.06 135.679 132.492 128.925 118.599 94.864 74.4362 56.7745 43.419 43.4658 42.4601 56.1119 26.8044 93.8838
275.55 0.00025 0.332475 -97.4934 -77.2459 -78.5061 -54.4106 -62.495 -32.7157 23.5617 56.5601 79.5529 82.741 68.1837 60.711 65.5956 58.4259 55.9055 69.6126 73.6663 69.0123 46.6986 54.766 64.995 63.7579 56.2141 45.5172 25.3826 15.6671 7.29024 1.42826 31.6104 60.7873 87.3537 106.702 117.825 110.33 106.531 109.772 120.926 125.503 137.489 118.645 98.6309 85.6922 100.511 123.674 141.228 166.806 167.669 173.498 192.03 194.464 190.062 193.205 204.304 222.692 238.6 262.377 274.021 285.34 265.513 251.396 253.99 251.769 244.089 238.107 224.162 230.07 229.911 248.677 252.313 238.751 200.796 160.447 108.331 74.5245 67.4615 76.0989 86.9413 99.1118 120.487 139.208 158.405 163.482 157.244 154.677 153.626 145.722 137.531 133.853 130.351 120.358 96.6621 76.1894 58.2523 44.632 44.7256 43.824 57.4654 27.665 95.4057
275.5525 0.00025 -3.05479 -94.6108 -77.3185 -81.1441 -53.3106 -60.0501 -32.4032 24.7421 54.0951 79.1149 86.7537 73.9163 64.734 67.2632 63.2839 58.5129 70.3694 72.9323 68.2549 46.0173 52.5092 63.2049 62.5004 56.67 46.7496 25.7657 16.3083 6.59012 1.19928 31.4918 56.6699 81.2027 101.74 111.494 108.812 106.513 109.556 122.056 123.728 136.017 117.71 98.7441 86.2513 101.441 125.341 141.69 166.828 168.28 173.022 190.898 196.499 189.678 192.316 203.868 223.355 240.548 261.298 274.703 285.932 267.884 253.75 255.095 252.963 246.196 239.868 224.096 228.211 228.148 246.325 250.925 237.142 200.183 162.057 110.444 75.7013 66.7051 74.7402 85.7725 97.6374 119.014 137.839 157.115 162.49 156.58 154.201 153.673 146.666 138.898 135.189 132.191 122.698 98.9457 78.2558 59.9334 46.0326 46.1061 45.2778 58.6999 28.3422 97.7955
275.555 0.00025 -6.59681 -92.0295 -77.9024 -84.2736 -53.0057 -56.6149 -31.7605 25.626 51.6425 77.8446 90.2409 79.5222 68.5273 68.1974 67.8073 61.9574 71.1188 72.3242 68.3474 46.8999 51.3297 62.4135 62.0796 57.8294 48.6369 26.7787 17.203 5.93667 0.996203 30.878 52.5127 74.5394 96.0633 104.201 106.341 105.862 109.43 123.575 122.422 134.258 116.592 99.0702 87.107 102.172 126.966 142.362 166.52 168.54 172.939 188.883 198.034 189.835 190.605 202.873 223.654 243.55 261.461 276.577 288.01 271.731 257.956 258.628 256.123 250.098 243.517 226.666 229.018 229.753 247.62 252.685 238.481 202.333 165.859 114.169 78.0733 66.9126 73.9405 85.091 96.7172 117.925 136.565 155.77 161.207 155.243 152.687 152.512 146.29 138.994 135.656 133.682 125.011 101.345 80.2803 61.5084 47.3625 47.3423 46.4336 59.429 28.3468 99.2254
275.5575 0.00025 -9.53534 -88.5726 -78.2002 -86.7039 -53.0576 -52.2729 -30.5909 25.968 49.7226 76.2354 93.378 85.0709 72.34 68.4007 71.5206 66.1079 72.6753 71.9659 68.0625 47.656 50.2644 61.6048 61.3002 58.2405 50.2414 27.5566 17.3574 4.11071 -0.523911 29.2469 48.7619 68.4773 90.8407 97.8204 104.043 105.706 110.031 125.639 121.746 132.212 114.91 99.0281 88.1048 102.734 128.754 143.84 166.624 169.02 173.91 186.877 199.413 190.86 188.157 200.992 222.375 245.429 260.905 276.904 288.526 274.228 261.287 261.539 258.614 252.978 245.892 227.729 227.804 229.675 248.563 254.855 240.276 204.848 170.42 118.779 81.1888 67.6129 73.3884 84.4778 95.9495 117.106 135.469 154.518 160.057 154.034 151.228 151.239 145.743 138.809 135.635 134.572 126.853 103.577 82.2303 62.8175 48.3808 48.309 47.287 59.8497 28.0001 99.4885
275.56 0.00025 -12.0513 -85.1442 -79.4398 -88.7565 -53.6351 -48.4642 -29.4319 26.3067 48.6533 75.232 96.5083 90.5458 76.5258 68.575 74.134 69.9001 73.5491 70.9038 67.1357 48.0096 48.7194 60.1912 60.0916 58.1251 51.5016 27.8857 16.9053 1.15528 -2.51025 27.5773 45.5827 62.9729 86.223 92.5235 101.825 106.058 110.972 127.805 121.65 130.141 113.239 99.0344 89.8168 104.149 130.945 146.133 167.61 170.206 176.218 185.472 200.799 192.965 185.846 198.827 219.956 246.269 259.386 275.104 286.682 274.338 262.113 262.318 258.892 253.361 245.162 225.47 222.089 224.532 244.335 252.398 238.407 204.152 172.463 122.364 84.1532 68.3514 72.9099 83.8854 95.0031 116.13 134.351 153.255 159.049 153.13 150.135 150.319 145.452 138.789 135.337 134.758 127.782 104.99 83.6367 63.5312 48.7623 48.6112 47.4249 59.5851 27.0607 98.855
275.5625 0.00025 -13.7499 -81.8146 -81.7314 -90.9382 -54.0202 -44.2451 -27.335 27.1942 48.2143 75.5499 99.2967 95.601 81.2733 69.12 76.0631 73.8521 73.8994 69.2245 65.3545 47.6561 46.3604 58.245 58.4968 57.8298 52.5904 28.2594 16.7577 -1.18111 -3.7634 25.9611 42.3776 57.3433 81.5634 88.1007 99.0326 106.246 111.849 129.537 121.815 128.28 112.411 100.132 92.372 106.173 133.525 149.196 169.507 172.163 180.187 185.807 203.314 197.081 185.107 197.039 217.489 247.049 258.574 273.166 284.389 274.135 261.822 261.763 257.613 252.142 242.92 222.247 215.329 217.834 238.238 247.543 234.783 202.163 173.484 125.604 87.1971 69.3871 72.929 83.9403 94.5471 115.547 133.522 152.344 158.48 152.541 149.364 149.818 145.366 138.728 134.718 134.287 127.862 105.471 84.2067 63.5563 48.43 48.0502 46.7251 58.5401 25.4391 97.7123
275.565 0.00025 -13.2619 -78.3827 -84.531 -91.6937 -54.1565 -39.8301 -24.6436 27.7509 47.7436 76.648 101.882 100.05 86.8328 70.3698 77.8042 78.3262 74.5478 67.7813 63.5696 47.2216 43.2506 55.6255 56.3655 57.1316 53.5238 28.9579 16.9655 -2.96502 -4.81228 24.2776 39.4688 52.0183 77.3096 84.2713 95.8321 106.724 113.37 131.426 122.395 126.699 111.871 101.271 94.9367 108.016 135.615 152.487 171.648 173.757 184.131 187.109 206.532 203.596 187.642 197.028 216.369 248.635 260.132 272.832 282.935 274.742 261.853 261.277 255.872 250.103 239.914 219.087 209.199 211.275 231.863 241.885 230.547 199.478 173.68 128.321 90.0358 70.4969 73.2077 84.4519 94.8482 115.919 133.364 151.968 158.553 152.509 149.087 149.775 145.698 138.929 134.265 133.827 127.923 105.977 84.8707 63.848 48.2923 47.4084 45.8601 57.1618 23.2894 96.1507
275.5675 0.00025 -11.1495 -76.0175 -87.7193 -91.2077 -53.6153 -35.4975 -21.3691 28.3673 47.5305 78.4516 104.487 103.637 92.9145 72.7265 79.9404 83.4757 75.7109 66.5545 61.7364 46.6097 39.9938 52.9148 54.0566 56.0943 54.0902 29.6291 17.0658 -4.34593 -5.57435 22.9732 37.478 47.8174 74.2468 81.4291 93.1236 107.982 115.115 133.237 123.229 125.043 111.105 101.907 97.3801 109.514 136.268 154.316 172.952 174.478 186.531 187.264 207.211 208.535 190.717 197.278 216.259 250.203 263.608 273.854 282.234 275.925 262.139 260.819 254.267 247.945 236.64 215.879 203.432 204.946 225.46 235.846 226.027 196.228 172.813 130.06 92.0254 70.9203 72.8358 84.3629 94.9803 116.613 133.752 152.158 159.122 153.05 149.252 149.902 146.331 139.624 134.302 133.872 128.595 106.967 85.9911 64.7066 48.8715 47.4776 45.5008 56.2279 21.6861 94.8378
275.57 0.00025 -7.17828 -74.9152 -90.9824 -90.3996 -53.3853 -31.4811 -18.2243 28.8438 47.2497 80.5513 106.232 105.312 97.8771 75.4461 81.7615 88.5392 76.947 65.4843 59.9817 45.8672 36.8349 50.1635 51.4276 54.4897 53.9609 30.2739 17.1025 -5.22663 -6.1541 21.7281 35.7838 44.5009 72.1034 79.4988 90.988 109.62 116.533 134.361 123.787 122.981 110.406 102.144 99.596 110.438 136.126 155.052 173.573 174.783 188.048 187.452 205.981 211.122 193.309 196.374 215.802 250.393 267.152 274.924 281.171 276.8 262.003 259.912 252.747 245.837 233.534 212.859 198.213 199.222 219.514 230.023 221.715 192.98 171.28 131.108 93.2536 70.4388 71.3985 83.1374 94.1703 116.521 133.902 152.404 159.848 153.97 149.759 150.284 147.109 140.758 134.897 134.336 129.575 108.166 87.2664 65.741 49.8188 48.3129 46.0577 56.4151 21.3461 94.2913
275.5725 0.00025 -3.81393 -74.8653 -93.7754 -89.6986 -53.5936 -27.8096 -15.5476 29.3534 47.4057 82.8912 107.694 106 101.892 78.4775 83.0085 92.9853 78.3466 64.6166 58.3103 44.9239 33.8217 47.4515 48.8009 52.7586 53.5339 30.9082 16.869 -6.06473 -7.04433 20.1883 34.2814 41.8044 70.1591 77.1008 88.2311 110.656 117.458 134.829 124.008 120.482 109.452 101.623 101.095 110.866 135.81 155.381 174 174.752 189.02 188.714 204.64 212.844 196.777 195.38 215.411 249.48 270.594 276.817 280.223 277.746 262.418 259.51 252.075 244.464 231.401 210.738 194.113 194.452 214.455 224.939 217.887 190.249 169.631 131.975 94.235 69.6066 69.4757 81.3802 92.5491 115.291 133.224 151.965 159.865 154.396 150.227 150.988 148.426 142.681 136.394 135.639 131.269 109.928 89.0172 67.1529 51.1091 49.6792 47.4987 57.9077 22.4029 96.119
275.575 0.00025 -1.78263 -75.7882 -95.9739 -88.8058 -53.1688 -23.334 -12.5216 30.4592 47.9348 85.4937 109.145 106.338 104.899 81.6415 83.9553 96.9607 79.9338 64.0829 56.8432 44.0537 31.0913 44.6822 46.3174 51.1746 53.0018 31.0686 15.8736 -7.29601 -8.39497 18.1741 32.352 39.352 68.4034 74.5301 85.5872 111.298 117.751 134.323 123.643 117.468 108.87 101.439 102.867 111.583 135.348 155.036 173.827 174.27 188.869 190.163 203.664 214.341 201.599 195.535 215.612 248.14 273.793 279.94 279.989 279.273 264.061 260.008 252.425 243.791 230.554 210.332 192.442 192.127 211.483 221.334 215.085 188.408 168.217 133.018 95.5478 69.1279 67.7753 79.8363 90.9551 113.741 131.805 150.564 158.915 153.917 149.944 151.009 149.358 144.404 138.051 137.446 133.64 112.218 91.1281 68.7675 52.5336 51.0268 48.9169 59.1183 23.0438 98.4462
275.5775 0.00025 -1.85217 -77.5303 -97.7925 -87.1893 -51.7181 -18.4636 -8.92772 32.7829 49.041 87.6703 110.708 106.866 107.213 85.4174 85.4779 100.641 82.2507 64.1296 55.4475 43.0315 28.6117 42.2529 44.2511 49.7891 52.529 31.0902 14.7288 -8.30542 -9.75497 16.0822 30.1482 37.6075 66.9023 72.0155 83.2726 111.783 117.635 133.108 123.215 114.608 108.945 101.748 105.083 112.936 134.95 154.091 173.172 173.932 187.795 191.362 202.645 215.125 207.244 197.172 216.696 247.121 276.672 284.595 281.046 281.89 267.086 261.916 254.564 244.658 231.245 211.886 193.304 192.885 212.27 221.379 215.675 190.082 169.492 135.834 98.114 69.6329 66.7003 78.7085 89.8507 112.541 130.377 148.919 157.605 152.841 148.638 149.724 148.845 144.66 138.676 138.771 135.873 114.549 93.1843 70.2821 53.8428 52.151 49.9956 59.7616 22.8857 99.4988
275.58 0.00025 -4.38869 -79.6975 -98.9059 -84.8288 -49.4051 -13.8265 -5.39314 35.6526 50.5313 89.0092 112.257 108.053 109.263 89.7778 87.8087 103.871 84.8691 65.3453 55.0022 42.7531 27.6561 41.2064 43.1941 49.228 52.5821 31.3106 13.8476 -8.68721 -11.087 13.7315 27.2404 35.3835 64.5381 69.2597 81.226 112.08 117.447 131.867 123.237 112.634 109.722 102.274 107.219 114.745 135.204 153.25 172.313 173.575 185.958 192.18 201.567 214.233 212.302 199.733 217.605 245.877 278.46 290.179 283.427 285.301 272.212 266.206 258.97 247.322 233.482 214.855 195.535 194.068 213.547 222.785 218.161 193.924 173.365 141.154 102.32 71.1354 66.1605 77.7951 89.0244 111.67 129.206 147.442 156.495 151.765 147.165 148.158 147.982 144.423 138.64 139.335 137.418 116.597 95.1207 71.6003 54.9116 53.0275 50.8112 60.1812 22.4127 99.4819
275.5825 0.00025 -8.81852 -82.2864 -99.4173 -81.919 -46.3265 -9.35386 -2.44068 38.6713 51.7182 88.9365 113.405 109.44 110.95 94.0743 91.0009 107.273 88.4306 68.2175 55.6932 43.2678 27.599 40.6751 42.8792 48.7789 52.7138 31.1056 12.445 -9.38077 -13.229 10.6647 23.5216 32.9456 61.5822 66.535 79.7492 112.502 117.231 130.601 123.515 110.908 110.674 103.227 109.23 116.666 135.816 152.532 171.586 173.546 183.955 192.757 201.185 212.415 216.392 202.677 217.636 243.673 277.084 293.916 284.274 286.173 275.457 268.276 261.741 248.35 233.361 214.825 194.837 191.681 210.596 219.966 216.558 194.128 173.65 144.104 105.819 72.4924 65.6855 76.8875 88.1344 110.687 127.965 145.906 155.442 150.897 146.053 146.954 147.35 144.345 138.407 139.242 138.028 117.77 96.4628 72.3197 55.3928 53.2678 50.9443 59.9006 21.3457 98.6093
275.585 0.00025 -14.2141 -85.4946 -99.6081 -78.8042 -42.1447 -5.25671 0.102999 41.8309 52.5547 87.8495 114.029 111.002 112.077 97.3132 94.7859 111.317 93.2759 72.2974 56.9579 43.6544 27.232 39.216 41.7801 47.6039 52.3062 30.1669 10.4517 -10.4011 -15.2511 8.36454 20.6798 31.8734 59.3367 65.1476 79.518 113.045 117.101 129.187 124.031 109.365 111.619 104.686 111.455 119.13 136.969 152.275 171.296 174.851 183.083 194.013 202.049 210.642 219.473 206.417 217.443 241.214 273.34 295.683 283.895 285.001 276.85 268.095 262.027 247.127 230.44 211.818 191.189 186.715 204.961 214.173 211.993 191.991 171.897 145.191 108.519 73.7233 65.4196 76.3646 87.4839 109.861 126.936 144.538 154.58 150.214 145.172 146.07 146.86 144.236 137.942 138.591 137.781 117.887 96.7889 72.1547 55.0203 52.5905 50.1818 58.7663 19.5777 97.3056
275.5875 0.00025 -20.0753 -89.3945 -100.21 -75.2939 -37.4692 -1.8742 2.51667 45.0594 54.0153 86.922 114.418 112.978 113.232 99.5197 98.0361 113.953 96.8733 76.4245 58.2409 43.3702 26.4396 36.9539 39.6736 45.5862 51.0547 28.5761 8.38055 -10.7177 -16.6348 6.49085 17.7831 31.6272 57.6255 64.4817 79.3337 112.609 116.61 127.315 124.468 108.326 112.957 107.24 113.86 122.017 139.149 152.84 171.472 176.835 183.415 196.771 205.376 210.591 222.541 211.989 218.197 239.545 269.31 296.998 284.269 283.688 278.083 267.517 261.241 244.997 226.83 208.502 187.485 181.899 198.925 207.453 206.498 189.195 169.75 145.766 111.214 75.2444 65.5714 76.4038 87.5654 109.92 126.612 143.66 154.278 150.09 144.734 145.616 146.764 144.269 137.608 137.937 137.417 117.85 97.0056 72.0619 54.6755 51.754 49.2011 57.3137 17.2956 95.7036
275.59 0.00025 -25.4999 -93.4623 -101.194 -71.7509 -33.0309 1.65915 4.96992 48.5095 55.9745 86.4531 114.377 115.045 114.455 100.842 100.532 115.615 98.9474 79.6966 59.1721 41.9306 24.9757 34.3036 37.6169 43.6501 49.4335 26.6907 6.22552 -10.8377 -17.9706 4.61135 14.9993 31.9264 56.2568 64.3328 79.337 111.747 116.112 125.243 124.667 107.883 114.315 110.527 116.334 125.273 141.839 153.762 172.052 179.15 183.904 199.363 210.276 213.186 227.575 221.521 222.554 240.571 267.209 299.232 286.768 283.51 280.155 267.925 260.58 243.031 223.191 205.009 183.997 177.33 192.85 200.479 200.534 185.819 166.966 145.339 113.229 76.5682 65.6132 76.3993 87.8957 110.704 127.106 143.469 154.608 150.628 144.949 145.525 147.094 144.776 137.749 137.786 137.723 118.492 97.8454 72.6839 55.1335 51.6694 48.7196 56.2553 15.5514 94.3702