275.5025 0.00025 4.86859 5.94274 6.99518 7.41379 7.732 7.9431 8.1465 8.28219 8.43055 8.58233 8.70877 8.82461 8.92548 9.01964 9.1103 9.18263 9.23625 9.28573 9.3276 9.37439 9.41585 9.43868 9.46507 9.49449 9.52344 9.54564 9.58318 9.62603 9.66015 9.68325 9.70198 9.72182 9.74593 9.77702 9.80449 9.82938 9.86437 9.89278 9.9187 9.95675 10.0008 10.0456 10.0981 10.1384 10.1679 10.1974 10.2384 10.2931 10.3427 10.389 10.433 10.4739 10.5107 10.5467 10.5822 10.6217 10.6612 10.6936 10.721 10.7568 10.7917 10.8257 10.86 10.8921 10.9182 10.9378 10.9567 10.9705 10.9802 10.9898 10.9989 11.0071 11.0139 11.0222 11.0324 11.0398 11.0467 11.053 11.0587 11.0648 11.074 11.0852 11.095 11.1027 11.1121 11.121 11.1288 11.1332 11.1325 11.1329 11.1351 11.1377 11.1383 11.1389 11.1387 11.1399 11.1413 11.1405 11.1363 11.1234
275.505 0.00025 4.86762 5.94195 6.99468 7.41495 7.73368 7.94468 8.14855 8.28372 8.43028 8.58048 8.70727 8.82303 8.92442 9.01995 9.1104 9.18258 9.23637 9.28569 9.32755 9.37363 9.41545 9.43907 9.46454 9.49321 9.52269 9.54527 9.58288 9.62644 9.66046 9.68344 9.70283 9.72268 9.74687 9.77834 9.80545 9.82979 9.86486 9.89339 9.9192 9.95715 10.0009 10.0454 10.0977 10.1374 10.1668 10.197 10.2382 10.2931 10.3426 10.3886 10.4324 10.4736 10.5106 10.5465 10.5817 10.6212 10.6605 10.6927 10.7202 10.7561 10.7908 10.825 10.8595 10.8918 10.9181 10.9377 10.9567 10.9708 10.9804 10.9899 10.999 11.0072 11.0139 11.0223 11.0326 11.04 11.0471 11.0533 11.059 11.065 11.0742 11.0854 11.0951 11.103 11.1125 11.1212 11.1289 11.1333 11.1327 11.1331 11.1353 11.138 11.1387 11.1393 11.1391 11.1403 11.1417 11.1409 11.1366 11.1238
275.5075 0.00025 4.86664 5.94115 6.99418 7.41609 7.73535 7.94631 8.15055 8.28543 8.43026 8.57859 8.7056 8.82138 8.92333 9.02021 9.11047 9.18244 9.23647 9.28569 9.32755 9.37288 9.41501 9.43944 9.46404 9.49194 9.52195 9.54492 9.58257 9.62679 9.66072 9.68358 9.70367 9.72358 9.74781 9.7797 9.8065 9.83022 9.8653 9.89398 9.91975 9.95762 10.001 10.0451 10.0972 10.1363 10.1656 10.1966 10.2382 10.2931 10.3426 10.3882 10.4318 10.4732 10.5105 10.5462 10.5812 10.6207 10.6599 10.6919 10.7195 10.7554 10.79 10.8242 10.8589 10.8915 10.918 10.9376 10.9568 10.9711 10.9807 10.99 10.9991 11.0072 11.0139 11.0223 11.0327 11.0403 11.0475 11.0537 11.0593 11.0652 11.0745 11.0855 11.0953 11.1032 11.1128 11.1215 11.1291 11.1334 11.1329 11.1333 11.1356 11.1383 11.1391 11.1398 11.1394 11.1407 11.1421 11.1413 11.137 11.1242
275.51 0.00025 4.86567 5.94033 6.99368 7.4172 7.73703 7.94797 8.1525 8.28731 8.43047 8.57671 8.70376 8.81968 8.92221 9.02043 9.1105 9.18225 9.23653 9.28571 9.32761 9.37216 9.41454 9.43977 9.46355 9.4907 9.52122 9.5446 9.58226 9.62709 9.66093 9.68368 9.7045 9.72451 9.74875 9.78107 9.80763 9.83067 9.86568 9.89455 9.92036 9.95814 10.0012 10.0449 10.0966 10.1352 10.1644 10.1963 10.2382 10.2932 10.3425 10.3877 10.4312 10.4728 10.5104 10.546 10.5807 10.6202 10.6593 10.6911 10.7188 10.7547 10.7891 10.8234 10.8583 10.8912 10.918 10.9376 10.9568 10.9713 10.9809 10.99 10.9992 11.0073 11.0139 11.0223 11.0328 11.0406 11.0478 11.054 11.0596 11.0654 11.0747 11.0857 11.0954 11.1034 11.1131 11.1217 11.1292 11.1336 11.1331 11.1336 11.1358 11.1386 11.1395 11.1402 11.1398 11.1411 11.1424 11.1417 11.1374 11.1246
275.5125 0.00025 4.8647 5.93951 6.99316 7.41826 7.73872 7.94968 8.1544 8.28937 8.43091 8.57484 8.70174 8.8179 8.92108 9.02057 9.11048 9.18202 9.23656 9.28577 9.32772 9.37146 9.41403 9.44007 9.46306 9.48951 9.52051 9.5443 9.58196 9.62733 9.6611 9.68376 9.70531 9.72548 9.74969 9.78246 9.80884 9.83114 9.86602 9.8951 9.92102 9.9587 10.0014 10.0447 10.096 10.134 10.1632 10.1959 10.2383 10.2933 10.3424 10.3873 10.4306 10.4723 10.5103 10.5458 10.5802 10.6197 10.6587 10.6904 10.718 10.754 10.7883 10.8226 10.8576 10.8908 10.9179 10.9375 10.9568 10.9716 10.9811 10.9901 10.9993 11.0073 11.0138 11.0223 11.033 11.0408 11.0482 11.0544 11.0599 11.0656 11.0749 11.0859 11.0955 11.1037 11.1135 11.122 11.1294 11.1337 11.1333 11.1338 11.136 11.1389 11.14 11.1406 11.1402 11.1415 11.1428 11.142 11.1378 11.125
275.515 0.00025 4.86374 5.9387 6.99265 7.41925 7.74043 7.95143 8.15623 8.29159 8.43157 8.57301 8.69957 8.81605 8.91994 9.02065 9.11041 9.18174 9.23656 9.28585 9.32788 9.37079 9.41349 9.44031 9.46259 9.48837 9.51983 9.54402 9.58165 9.6275 9.66122 9.68381 9.70611 9.72649 9.75064 9.78385 9.81011 9.83165 9.86631 9.89564 9.92172 9.9593 10.0017 10.0446 10.0954 10.1327 10.162 10.1956 10.2384 10.2934 10.3422 10.3868 10.43 10.4718 10.5101 10.5456 10.5798 10.6192 10.658 10.6896 10.7173 10.7533 10.7875 10.8218 10.8569 10.8904 10.9178 10.9375 10.9569 10.9718 10.9814 10.9902 10.9994 11.0074 11.0138 11.0224 11.0331 11.0411 11.0486 11.0548 11.0601 11.0658 11.0751 11.0861 11.0956 11.1039 11.1138 11.1223 11.1295 11.1338 11.1334 11.134 11.1363 11.1392 11.1404 11.1411 11.1406 11.1418 11.1432 11.1424 11.1382 11.1254
275.5175 0.00025 4.86279 5.93791 6.99212 7.42018 7.74215 7.95321 8.15798 8.29399 8.43244 8.57123 8.69727 8.81412 8.9188 9.02065 9.11028 9.18145 9.23652 9.28594 9.32809 9.37015 9.41292 9.44049 9.46212 9.48729 9.51918 9.54375 9.58135 9.6276 9.66129 9.68385 9.7069 9.72752 9.7516 9.78524 9.81144 9.83219 9.86656 9.89615 9.92248 9.95992 10.002 10.0445 10.0947 10.1314 10.1609 10.1953 10.2385 10.2936 10.3421 10.3863 10.4293 10.4712 10.5099 10.5454 10.5794 10.6186 10.6574 10.6889 10.7166 10.7526 10.7867 10.821 10.8562 10.89 10.9177 10.9375 10.9569 10.972 10.9816 10.9904 10.9995 11.0074 11.0138 11.0224 11.0332 11.0413 11.0489 11.0551 11.0604 11.0661 11.0753 11.0862 11.0957 11.1041 11.1141 11.1225 11.1297 11.1339 11.1336 11.1343 11.1365 11.1395 11.1408 11.1415 11.141 11.1422 11.1436 11.1428 11.1386 11.1258
275.52 0.00025 4.86184 5.93714 6.9916 7.42103 7.74388 7.95502 8.15967 8.29654 8.4335 8.56952 8.69485 8.81212 8.91766 9.02056 9.11009 9.18113 9.23645 9.28604 9.32835 9.36953 9.41232 9.4406 9.46165 9.48629 9.51857 9.54349 9.58104 9.62762 9.66132 9.68389 9.70769 9.72858 9.75257 9.7866 9.81279 9.83277 9.86678 9.89666 9.92328 9.96056 10.0023 10.0444 10.0939 10.13 10.1597 10.195 10.2386 10.2938 10.3419 10.3859 10.4287 10.4706 10.5095 10.5452 10.5791 10.6181 10.6568 10.6883 10.7158 10.7518 10.7859 10.8201 10.8555 10.8896 10.9176 10.9375 10.9569 10.9722 10.9819 10.9905 10.9996 11.0075 11.0138 11.0224 11.0333 11.0416 11.0493 11.0555 11.0607 11.0663 11.0755 11.0864 11.0959 11.1044 11.1145 11.1228 11.1298 11.134 11.1338 11.1345 11.1367 11.1398 11.1412 11.1419 11.1414 11.1426 11.144 11.1432 11.139 11.1262
275.5225 0.00025 4.86088 5.93641 6.99109 7.42179 7.7456 7.95685 8.16127 8.29924 8.43476 8.56789 8.69235 8.81004 8.91651 9.0204 9.10983 9.1808 9.23634 9.28613 9.32864 9.36895 9.4117 9.44064 9.46119 9.48537 9.51799 9.54324 9.58072 9.62757 9.6613 9.68394 9.70846 9.72966 9.75355 9.78795 9.81416 9.83341 9.86697 9.89714 9.92413 9.9612 10.0027 10.0444 10.0932 10.1285 10.1586 10.1948 10.2388 10.294 10.3418 10.3855 10.428 10.4699 10.5091 10.545 10.5789 10.6176 10.6561 10.6877 10.7151 10.7511 10.7852 10.8193 10.8547 10.8891 10.9175 10.9375 10.957 10.9725 10.9821 10.9906 10.9997 11.0075 11.0138 11.0224 11.0334 11.0418 11.0496 11.0558 11.061 11.0665 11.0757 11.0866 11.096 11.1046 11.1148 11.1231 11.13 11.1341 11.134 11.1347 11.137 11.1401 11.1416 11.1424 11.1418 11.143 11.1444 11.1435 11.1394 11.1267
275.525 0.00025 4.85993 5.93571 6.99059 7.42246 7.74732 7.95867 8.1628 8.30208 8.43621 8.56636 8.6898 8.80789 8.91536 9.02016 9.10951 9.18046 9.23619 9.28622 9.32898 9.3684 9.41106 9.44059 9.46073 9.48454 9.51746 9.543 9.5804 9.62745 9.66124 9.684 9.70923 9.73075 9.75457 9.78926 9.81553 9.8341 9.86716 9.89759 9.92503 9.96185 10.0031 10.0444 10.0924 10.127 10.1575 10.1946 10.239 10.2942 10.3416 10.3851 10.4274 10.4692 10.5087 10.5447 10.5787 10.6171 10.6554 10.6871 10.7144 10.7503 10.7844 10.8185 10.8539 10.8885 10.9174 10.9375 10.957 10.9727 10.9823 10.9908 10.9998 11.0075 11.0138 11.0225 11.0335 11.042 11.05 11.0562 11.0613 11.0668 11.0759 11.0868 11.0961 11.1048 11.1152 11.1233 11.1301 11.1342 11.1342 11.1349 11.1372 11.1404 11.1421 11.1428 11.1422 11.1434 11.1447 11.1439 11.1398 11.1271
275.5275 0.00025 4.85899 5.93505 6.99009 7.42304 7.74901 7.96047 8.16424 8.30502 8.43784 8.56494 8.68723 8.80567 8.91418 9.01984 9.10913 9.18011 9.23602 9.28629 9.32935 9.36789 9.4104 9.44046 9.46028 9.48381 9.51697 9.54276 9.58007 9.62725 9.66114 9.68409 9.70998 9.73185 9.75561 9.79053 9.81686 9.83486 9.86735 9.89802 9.92598 9.96251 10.0035 10.0445 10.0917 10.1256 10.1564 10.1944 10.2391 10.2943 10.3414 10.3847 10.4268 10.4685 10.5081 10.5445 10.5786 10.6167 10.6546 10.6865 10.7138 10.7495 10.7836 10.8177 10.8532 10.8879 10.9172 10.9375 10.9571 10.9729 10.9826 10.9909 11 11.0076 11.0138 11.0225 11.0336 11.0423 11.0503 11.0566 11.0616 11.067 11.0762 11.0869 11.0962 11.105 11.1155 11.1236 11.1303 11.1343 11.1344 11.1352 11.1374 11.1407 11.1425 11.1432 11.1426 11.1438 11.1451 11.1443 11.1401 11.1275
275.53 0.00025 4.85806 5.93442 6.98962 7.42353 7.75068 7.96223 8.16561 8.30805 8.43965 8.56367 8.68466 8.80341 8.91297 9.01943 9.10869 9.17976 9.23581 9.28633 9.32974 9.36742 9.40972 9.44024 9.45984 9.48318 9.51653 9.54252 9.57971 9.62698 9.66101 9.68421 9.71073 9.73296 9.75669 9.79175 9.81815 9.83568 9.86756 9.89842 9.92697 9.96319 10.0039 10.0445 10.0909 10.1241 10.1554 10.1943 10.2393 10.2944 10.3412 10.3844 10.4263 10.4678 10.5074 10.5442 10.5785 10.6162 10.6539 10.686 10.7131 10.7487 10.7829 10.817 10.8524 10.8873 10.917 10.9376 10.9572 10.973 10.9828 10.9911 11.0001 11.0076 11.0138 11.0225 11.0337 11.0425 11.0506 11.0569 11.0619 11.0672 11.0764 11.0871 11.0963 11.1053 11.1158 11.1239 11.1304 11.1345 11.1346 11.1354 11.1377 11.141 11.1429 11.1437 11.143 11.1442 11.1455 11.1447 11.1405 11.1279
275.5325 0.00025 4.85713 5.93382 6.98917 7.42392 7.7523 7.96394 8.16691 8.31112 8.44164 8.56255 8.68214 8.8011 8.91173 9.01895 9.10819 9.1794 9.23557 9.28634 9.33015 9.36699 9.40901 9.43993 9.45941 9.48266 9.51614 9.54228 9.57934 9.62666 9.66085 9.68437 9.71146 9.73407 9.75781 9.79292 9.81937 9.83655 9.86781 9.89877 9.92801 9.96389 10.0042 10.0446 10.0902 10.1226 10.1544 10.1942 10.2395 10.2944 10.3409 10.3841 10.4258 10.467 10.5067 10.5438 10.5785 10.6158 10.6531 10.6854 10.7125 10.7479 10.7821 10.8162 10.8516 10.8867 10.9167 10.9376 10.9572 10.9732 10.983 10.9912 11.0002 11.0077 11.0138 11.0226 11.0338 11.0427 11.051 11.0573 11.0621 11.0675 11.0766 11.0873 11.0964 11.1055 11.1162 11.1242 11.1306 11.1346 11.1347 11.1356 11.1379 11.1413 11.1433 11.1441 11.1434 11.1446 11.1459 11.1451 11.1409 11.1283
275.535 0.00025 4.85622 5.93326 6.98878 7.42423 7.75385 7.96559 8.16814 8.3142 8.44378 8.56162 8.67969 8.79877 8.91044 9.01838 9.10764 9.17904 9.23531 9.28632 9.33057 9.36661 9.40829 9.43953 9.45899 9.48225 9.51581 9.54203 9.57894 9.62628 9.66067 9.68455 9.71219 9.73518 9.75896 9.79404 9.82052 9.83749 9.86811 9.89909 9.92908 9.96463 10.0046 10.0447 10.0894 10.1211 10.1534 10.1941 10.2397 10.2943 10.3406 10.3839 10.4254 10.4662 10.5059 10.5434 10.5785 10.6154 10.6523 10.6849 10.7119 10.7471 10.7813 10.8154 10.8509 10.886 10.9164 10.9376 10.9573 10.9734 10.9833 10.9914 11.0004 11.0077 11.0138 11.0226 11.0339 11.0429 11.0513 11.0577 11.0624 11.0677 11.0768 11.0875 11.0965 11.1057 11.1165 11.1245 11.1308 11.1347 11.1349 11.1359 11.1381 11.1416 11.1437 11.1445 11.1438 11.145 11.1463 11.1454 11.1413 11.1287
275.5375 0.00025 4.85532 5.93271 6.98844 7.42444 7.75531 7.96717 8.16933 8.31725 8.44605 8.5609 8.67735 8.79642 8.90908 9.01774 9.10704 9.17868 9.23503 9.28625 9.33098 9.36627 9.40756 9.43904 9.45858 9.48195 9.51554 9.54177 9.57851 9.62585 9.66047 9.68477 9.7129 9.73628 9.76016 9.79509 9.82158 9.83847 9.86848 9.89938 9.93016 9.96542 10.005 10.0447 10.0887 10.1198 10.1525 10.1941 10.2398 10.2942 10.3402 10.3837 10.425 10.4654 10.5051 10.543 10.5786 10.6151 10.6515 10.6843 10.7113 10.7463 10.7805 10.8146 10.8501 10.8853 10.916 10.9376 10.9574 10.9737 10.9835 10.9916 11.0005 11.0078 11.0138 11.0226 11.034 11.0431 11.0516 11.058 11.0627 11.0679 11.0771 11.0877 11.0967 11.1059 11.1168 11.1248 11.1309 11.1348 11.1351 11.1361 11.1384 11.1419 11.1441 11.1449 11.1442 11.1454 11.1467 11.1458 11.1417 11.1291
275.54 0.00025 4.85442 5.9322 6.98816 7.42458 7.75667 7.96867 8.17048 8.32024 8.44843 8.56041 8.67515 8.79408 8.90767 9.01701 9.10639 9.17832 9.23473 9.28614 9.33138 9.36597 9.40681 9.43847 9.45818 9.48175 9.51532 9.5415 9.57806 9.62539 9.66027 9.68503 9.7136 9.73737 9.76138 9.79608 9.82254 9.83949 9.86893 9.89965 9.93125 9.96626 10.0053 10.0448 10.088 10.1184 10.1516 10.194 10.24 10.294 10.3398 10.3835 10.4246 10.4646 10.5042 10.5425 10.5786 10.6149 10.6507 10.6838 10.7108 10.7456 10.7796 10.8138 10.8494 10.8847 10.9156 10.9376 10.9575 10.9739 10.9838 10.9917 11.0006 11.0078 11.0138 11.0227 11.0341 11.0433 11.0519 11.0584 11.063 11.0682 11.0773 11.0878 11.0968 11.1061 11.1172 11.125 11.1311 11.1349 11.1353 11.1363 11.1386 11.1422 11.1445 11.1454 11.1446 11.1458 11.147 11.1462 11.1421 11.1295
275.5425 0.00025 4.85355 5.93172 6.98796 7.42463 7.75789 7.97009 8.17161 8.32312 8.45089 8.56018 8.67312 8.79177 8.90619 9.01619 9.10571 9.17795 9.23442 9.28598 9.33175 9.36573 9.40605 9.43782 9.4578 9.48164 9.51516 9.54122 9.57758 9.6249 9.66006 9.68531 9.7143 9.73845 9.76263 9.79702 9.82341 9.84053 9.86946 9.8999 9.93233 9.96715 10.0056 10.0447 10.0872 10.1172 10.1508 10.194 10.2402 10.2938 10.3394 10.3834 10.4243 10.4638 10.5032 10.5419 10.5787 10.6146 10.65 10.6833 10.7102 10.7448 10.7788 10.813 10.8487 10.884 10.9152 10.9376 10.9576 10.9741 10.984 10.9919 11.0008 11.0079 11.0139 11.0227 11.0341 11.0434 11.0523 11.0587 11.0633 11.0684 11.0775 11.088 11.0969 11.1063 11.1175 11.1253 11.1313 11.135 11.1355 11.1366 11.1388 11.1425 11.1449 11.1458 11.145 11.1461 11.1474 11.1466 11.1425 11.1299
275.545 0.00025 4.85269 5.93126 6.98784 7.42461 7.75895 7.97141 8.17273 8.32589 8.45339 8.56021 8.67128 8.78951 8.90465 9.01528 9.10497 9.17757 9.23411 9.28577 9.33209 9.36552 9.4053 9.43711 9.45742 9.48164 9.51506 9.54092 9.57707 9.6244 9.65985 9.68561 9.71499 9.73952 9.76389 9.7979 9.82418 9.84159 9.87008 9.90016 9.93339 9.96811 10.006 10.0447 10.0865 10.116 10.15 10.194 10.2404 10.2934 10.3388 10.3832 10.4241 10.463 10.5023 10.5413 10.5787 10.6144 10.6492 10.6827 10.7097 10.7441 10.778 10.8122 10.848 10.8833 10.9147 10.9375 10.9577 10.9743 10.9843 10.9921 11.0009 11.0079 11.0139 11.0228 11.0342 11.0436 11.0526 11.0591 11.0636 11.0687 11.0777 11.0882 11.097 11.1065 11.1178 11.1256 11.1315 11.1351 11.1356 11.1368 11.1391 11.1428 11.1453 11.1462 11.1454 11.1465 11.1478 11.1469 11.1429 11.1303
275.5475 0.00025 4.85185 5.93083 6.9878 7.42452 7.75984 7.97265 8.17387 8.32851 8.4559 8.5605 8.66968 8.78733 8.90304 9.01427 9.1042 9.1772 9.2338 9.28551 9.33238 9.36536 9.40455 9.43633 9.45705 9.48172 9.51501 9.54061 9.57654 9.6239 9.65965 9.68594 9.71568 9.74057 9.76515 9.79872 9.82485 9.84265 9.87078 9.90043 9.93442 9.96911 10.0063 10.0446 10.0857 10.1149 10.1493 10.194 10.2406 10.2931 10.3382 10.3831 10.4239 10.4622 10.5013 10.5407 10.5787 10.6142 10.6485 10.6822 10.7091 10.7433 10.7772 10.8113 10.8474 10.8827 10.9142 10.9373 10.9578 10.9746 10.9846 10.9923 11.0011 11.008 11.014 11.0229 11.0343 11.0438 11.0529 11.0595 11.0639 11.0689 11.078 11.0884 11.0971 11.1067 11.1181 11.1259 11.1317 11.1352 11.1358 11.1371 11.1393 11.1431 11.1457 11.1466 11.1458 11.1469 11.1482 11.1473 11.1432 11.1307
275.55 0.00025 4.85104 5.93045 6.98786 7.42437 7.76053 7.97378 8.17504 8.33096 8.45837 8.56106 8.66831 8.78525 8.90138 9.01315 9.10338 9.17681 9.23348 9.2852 9.33261 9.36523 9.40381 9.4355 9.45667 9.48188 9.51501 9.54029 9.576 9.6234 9.65946 9.68628 9.71637 9.7416 9.7664 9.7995 9.82545 9.84369 9.87156 9.90073 9.93541 9.97016 10.0067 10.0444 10.085 10.1139 10.1487 10.194 10.2409 10.2927 10.3376 10.383 10.4238 10.4615 10.5003 10.54 10.5786 10.614 10.6479 10.6817 10.7086 10.7426 10.7763 10.8105 10.8467 10.882 10.9136 10.9371 10.9579 10.9748 10.9848 10.9924 11.0012 11.0081 11.014 11.0229 11.0343 11.0439 11.0532 11.0598 11.0642 11.0692 11.0782 11.0886 11.0972 11.107 11.1184 11.1262 11.1319 11.1354 11.136 11.1373 11.1395 11.1434 11.1461 11.1471 11.1462 11.1473 11.1486 11.1477 11.1436 11.1311
275.5525 0.00025 4.85025 5.93012 6.98799 7.42414 7.76101 7.97482 8.17626 8.33323 8.46077 8.56186 8.66719 8.78331 8.89969 9.01194 9.10253 9.17642 9.23317 9.28485 9.33277 9.36513 9.40309 9.43463 9.45629 9.4821 9.51507 9.53995 9.57545 9.62291 9.65928 9.68663 9.71706 9.7426 9.76763 9.80024 9.82597 9.84471 9.87242 9.90109 9.93637 9.97122 10.0071 10.0442 10.0842 10.113 10.1482 10.194 10.2411 10.2922 10.3369 10.3828 10.4236 10.4608 10.4993 10.5394 10.5784 10.6139 10.6473 10.6811 10.7081 10.742 10.7755 10.8096 10.846 10.8814 10.9131 10.9368 10.9579 10.9751 10.9852 10.9926 11.0014 11.0081 11.0141 11.023 11.0344 11.0441 11.0535 11.0602 11.0645 11.0695 11.0785 11.0888 11.0973 11.1072 11.1187 11.1265 11.132 11.1355 11.1361 11.1375 11.1398 11.1436 11.1465 11.1475 11.1466 11.1477 11.1489 11.1481 11.144 11.1315
275.555 0.00025 4.84951 5.92985 6.9882 7.42383 7.76127 7.97577 8.17755 8.33532 8.46308 8.56288 8.66633 8.78154 8.89796 9.01061 9.10162 9.17603 9.23286 9.28446 9.33286 9.36505 9.40241 9.43372 9.45591 9.48239 9.51516 9.53959 9.5749 9.62244 9.6591 9.68698 9.71776 9.74358 9.76882 9.80094 9.82642 9.84569 9.87334 9.90152 9.93728 9.97229 10.0075 10.044 10.0834 10.1121 10.1478 10.194 10.2413 10.2917 10.3362 10.3827 10.4235 10.4601 10.4984 10.5387 10.5782 10.6136 10.6468 10.6806 10.7075 10.7413 10.7747 10.8087 10.8453 10.8808 10.9125 10.9365 10.958 10.9754 10.9855 10.9928 11.0015 11.0082 11.0142 11.0231 11.0344 11.0442 11.0538 11.0605 11.0648 11.0697 11.0787 11.0889 11.0975 11.1074 11.1191 11.1268 11.1322 11.1356 11.1363 11.1378 11.14 11.1439 11.1469 11.1479 11.147 11.1481 11.1493 11.1484 11.1444 11.132
275.5575 0.00025 4.84882 5.92966 6.98849 7.42345 7.76131 7.97663 8.17891 8.33722 8.46527 8.56409 8.66573 8.77995 8.89623 9.00918 9.10068 9.17562 9.23255 9.28403 9.33286 9.36497 9.40176 9.4328 9.45551 9.48273 9.5153 9.53923 9.57436 9.622 9.65894 9.68734 9.71846 9.74452 9.76997 9.80161 9.82683 9.84663 9.87431 9.90202 9.93817 9.97334 10.008 10.0438 10.0826 10.1113 10.1474 10.1941 10.2415 10.2912 10.3354 10.3825 10.4234 10.4594 10.4975 10.538 10.5779 10.6134 10.6464 10.6802 10.707 10.7406 10.7739 10.8078 10.8447 10.8803 10.9119 10.9362 10.9579 10.9756 10.9858 10.993 11.0017 11.0083 11.0143 11.0231 11.0345 11.0444 11.0541 11.0609 11.0651 11.07 11.0789 11.0891 11.0976 11.1075 11.1194 11.1271 11.1324 11.1357 11.1365 11.138 11.1402 11.1442 11.1472 11.1483 11.1474 11.1485 11.1497 11.1488 11.1448 11.1324
275.56 0.00025 4.84818 5.92956 6.98884 7.42297 7.76112 7.97739 8.18035 8.33892 8.46732 8.56547 8.66539 8.77858 8.89451 9.00765 9.09968 9.17521 9.23224 9.28356 9.33277 9.36491 9.40117 9.43187 9.45509 9.48312 9.51547 9.53886 9.57384 9.62159 9.65879 9.6877 9.71917 9.74543 9.77107 9.80225 9.82719 9.84752 9.87532 9.90261 9.93902 9.97435 10.0085 10.0436 10.0818 10.1106 10.147 10.1941 10.2417 10.2907 10.3346 10.3822 10.4232 10.4588 10.4966 10.5374 10.5775 10.6131 10.646 10.6797 10.7064 10.74 10.7731 10.8068 10.844 10.8797 10.9113 10.9358 10.9579 10.9759 10.9862 10.9932 11.0018 11.0084 11.0144 11.0232 11.0345 11.0445 11.0543 11.0613 11.0654 11.0702 11.0792 11.0893 11.0977 11.1077 11.1197 11.1274 11.1327 11.1359 11.1366 11.1382 11.1405 11.1445 11.1476 11.1488 11.1478 11.1489 11.1501 11.1492 11.1452 11.1328
275.5625 0.00025 4.8476 5.92957 6.98925 7.42241 7.76073 7.97808 8.18186 8.34043 8.46923 8.56698 8.6653 8.77742 8.89281 9.00604 9.09864 9.17478 9.23192 9.28306 9.3326 9.36483 9.40062 9.43094 9.45465 9.48353 9.51567 9.53849 9.57335 9.62122 9.65864 9.68805 9.71989 9.7463 9.77211 9.80286 9.82753 9.84835 9.87635 9.9033 9.93985 9.97531 10.0091 10.0434 10.081 10.1099 10.1468 10.1941 10.2418 10.2902 10.3338 10.382 10.4231 10.4582 10.4957 10.5368 10.5771 10.6127 10.6457 10.6793 10.7059 10.7394 10.7723 10.8059 10.8433 10.8792 10.9108 10.9353 10.9577 10.9762 10.9866 10.9934 11.002 11.0085 11.0145 11.0233 11.0346 11.0446 11.0546 11.0616 11.0657 11.0705 11.0794 11.0895 11.0978 11.1079 11.12 11.1276 11.1329 11.136 11.1368 11.1385 11.1407 11.1448 11.148 11.1492 11.1482 11.1493 11.1505 11.1496 11.1456 11.1332
275.565 0.00025 4.84707 5.92968 6.9897 7.42175 7.76012 7.9787 8.18344 8.34175 8.47099 8.56858 8.66546 8.77647 8.89116 9.00436 9.09755 9.17433 9.2316 9.28254 9.33233 9.36473 9.40014 9.43002 9.45418 9.48395 9.51589 9.53812 9.57289 9.62089 9.6585 9.6884 9.7206 9.74713 9.77309 9.80344 9.82784 9.84914 9.8774 9.90409 9.94067 9.9762 10.0096 10.0433 10.0802 10.1092 10.1465 10.1941 10.242 10.2897 10.3331 10.3817 10.4229 10.4576 10.495 10.5362 10.5766 10.6122 10.6454 10.679 10.7053 10.7388 10.7715 10.8049 10.8425 10.8787 10.9102 10.9348 10.9576 10.9764 10.987 10.9936 11.0021 11.0086 11.0146 11.0234 11.0346 11.0447 11.0549 11.062 11.066 11.0708 11.0797 11.0897 11.098 11.1081 11.1202 11.1279 11.1331 11.1361 11.137 11.1387 11.141 11.145 11.1484 11.1496 11.1486 11.1497 11.1508 11.15 11.1459 11.1336
275.5675 0.00025 4.84661 5.92991 6.99019 7.421 7.75932 7.97925 8.18508 8.34289 8.47257 8.57026 8.66587 8.77574 8.88956 9.00264 9.09643 9.17386 9.23127 9.28199 9.33197 9.3646 9.39973 9.42912 9.45369 9.48438 9.51613 9.53776 9.57249 9.62061 9.65837 9.68875 9.72131 9.74793 9.774 9.80399 9.82815 9.84987 9.87846 9.90498 9.94148 9.97701 10.0102 10.0432 10.0794 10.1085 10.1463 10.1942 10.2421 10.2892 10.3323 10.3813 10.4226 10.4571 10.4943 10.5356 10.5761 10.6117 10.6451 10.6787 10.7048 10.7382 10.7707 10.8039 10.8418 10.8782 10.9097 10.9343 10.9573 10.9766 10.9874 10.9938 11.0023 11.0087 11.0147 11.0235 11.0347 11.0449 11.0551 11.0623 11.0663 11.071 11.0799 11.0899 11.0981 11.1083 11.1205 11.1282 11.1333 11.1363 11.1372 11.1389 11.1412 11.1453 11.1487 11.15 11.149 11.15 11.1512 11.1503 11.1463 11.134
275.57 0.00025 4.84622 5.93026 6.9907 7.42015 7.75835 7.97976 8.18677 8.34385 8.47399 8.57198 8.66652 8.77521 8.88803 9.00089 9.09528 9.17336 9.23091 9.28143 9.33151 9.36443 9.39938 9.42825 9.45317 9.4848 9.51639 9.53742 9.57214 9.62037 9.65823 9.68908 9.72201 9.7487 9.77484 9.8045 9.82845 9.85055 9.87951 9.90597 9.94228 9.97774 10.0108 10.0432 10.0787 10.1079 10.1461 10.1942 10.2423 10.2887 10.3316 10.381 10.4223 10.4565 10.4936 10.5351 10.5756 10.6111 10.6448 10.6784 10.7042 10.7376 10.7699 10.8029 10.841 10.8777 10.9092 10.9338 10.9571 10.9768 10.9878 10.9941 11.0024 11.0088 11.0148 11.0236 11.0347 11.045 11.0554 11.0627 11.0666 11.0713 11.0801 11.0901 11.0982 11.1085 11.1208 11.1285 11.1335 11.1364 11.1373 11.1392 11.1415 11.1456 11.1491 11.1504 11.1494 11.1504 11.1516 11.1507 11.1467 11.1344
275.5725 0.00025 4.8459 5.9307 6.99123 7.41921 7.75722 7.98024 8.18849 8.34464 8.47522 8.57374 8.6674 8.77487 8.88657 8.99916 9.09411 9.17283 9.23053 9.28084 9.33098 9.36421 9.39911 9.42742 9.45262 9.4852 9.51665 9.5371 9.57186 9.62017 9.6581 9.68941 9.7227 9.74944 9.77561 9.80499 9.82876 9.85118 9.88055 9.90704 9.94309 9.97837 10.0113 10.0433 10.078 10.1073 10.1459 10.1942 10.2424 10.2882 10.3309 10.3806 10.422 10.456 10.493 10.5346 10.575 10.6104 10.6446 10.6783 10.7037 10.737 10.7691 10.8019 10.8402 10.8772 10.9087 10.9332 10.9567 10.9769 10.9883 10.9943 11.0026 11.0089 11.015 11.0237 11.0348 11.0451 11.0557 11.063 11.0669 11.0716 11.0804 11.0903 11.0984 11.1087 11.1211 11.1288 11.1337 11.1366 11.1375 11.1394 11.1417 11.1459 11.1495 11.1508 11.1498 11.1508 11.152 11.1511 11.1471 11.1348
275.575 0.00025 4.84566 5.93123 6.99176 7.41819 7.75595 7.9807 8.19022 8.34527 8.47627 8.57553 8.66851 8.77469 8.88517 8.99745 9.09294 9.17226 9.23011 9.28025 9.33035 9.36393 9.3989 9.42664 9.45206 9.48556 9.51691 9.53683 9.57165 9.62002 9.65796 9.68972 9.72336 9.75015 9.77631 9.80544 9.82908 9.85176 9.88157 9.90821 9.9439 9.97892 10.0119 10.0435 10.0775 10.1068 10.1457 10.1941 10.2425 10.2877 10.3302 10.3802 10.4215 10.4555 10.4925 10.5341 10.5744 10.6097 10.6443 10.6781 10.7033 10.7364 10.7684 10.8009 10.8394 10.8767 10.9082 10.9327 10.9564 10.9771 10.9887 10.9946 11.0027 11.0091 11.0152 11.0238 11.0348 11.0452 11.0559 11.0634 11.0672 11.0719 11.0806 11.0905 11.0985 11.1089 11.1213 11.129 11.1339 11.1367 11.1377 11.1396 11.142 11.1461 11.1498 11.1512 11.1502 11.1512 11.1523 11.1515 11.1475 11.1352
275.5775 0.00025 4.84549 5.93183 6.99229 7.41708 7.75459 7.98116 8.19195 8.34576 8.47713 8.57734 8.66984 8.77466 8.88384 8.99579 9.09179 9.17164 9.22965 9.27964 9.32965 9.36357 9.39876 9.42592 9.45149 9.48586 9.51717 9.53659 9.57151 9.61991 9.65782 9.69003 9.724 9.75083 9.77695 9.80585 9.82943 9.8523 9.88258 9.90946 9.94472 9.97937 10.0124 10.0437 10.0769 10.1063 10.1454 10.1941 10.2426 10.2872 10.3296 10.3798 10.4211 10.455 10.492 10.5337 10.5737 10.6089 10.6439 10.678 10.7029 10.7358 10.7676 10.7999 10.8386 10.8762 10.9078 10.9321 10.9559 10.9771 10.9892 10.9949 11.0029 11.0092 11.0153 11.024 11.0349 11.0453 11.0561 11.0637 11.0675 11.0721 11.0809 11.0907 11.0987 11.109 11.1216 11.1293 11.1342 11.1369 11.1379 11.1399 11.1422 11.1464 11.1502 11.1516 11.1506 11.1516 11.1527 11.1518 11.1479 11.1356
275.58 0.00025 4.84539 5.93249 6.99281 7.41591 7.75316 7.98163 8.19363 8.34611 8.47781 8.57915 8.67139 8.77476 8.88256 8.9942 9.09067 9.17097 9.22914 9.27903 9.32887 9.36315 9.39867 9.42526 9.45091 9.4861 9.51742 9.53641 9.57145 9.61983 9.65768 9.69033 9.72461 9.7515 9.77751 9.80623 9.82979 9.85281 9.88358 9.91077 9.94553 9.97974 10.013 10.044 10.0765 10.1058 10.1452 10.1939 10.2426 10.2868 10.329 10.3794 10.4206 10.4545 10.4916 10.5332 10.5731 10.6081 10.6435 10.6779 10.7025 10.7353 10.7669 10.7988 10.8378 10.8757 10.9073 10.9316 10.9555 10.9772 10.9896 10.9952 11.003 11.0093 11.0155 11.0241 11.0349 11.0454 11.0564 11.0641 11.0678 11.0724 11.0811 11.0909 11.0988 11.1092 11.1218 11.1296 11.1344 11.1371 11.138 11.1401 11.1425 11.1467 11.1505 11.152 11.1511 11.152 11.1531 11.1522 11.1482 11.136
275.5825 0.00025 4.84535 5.93318 6.9933 7.41468 7.7517 7.98214 8.19525 8.34635 8.47831 8.58096 8.67314 8.77497 8.88134 8.99267 9.08961 9.17026 9.22856 9.27841 9.32803 9.36264 9.39862 9.42468 9.45033 9.48627 9.51766 9.53629 9.57147 9.61979 9.65753 9.69062 9.72519 9.75213 9.77802 9.80657 9.83018 9.85329 9.88455 9.91214 9.94634 9.98004 10.0134 10.0444 10.0762 10.1055 10.1449 10.1938 10.2426 10.2863 10.3285 10.379 10.42 10.454 10.4912 10.5328 10.5724 10.6073 10.6431 10.6778 10.7022 10.7348 10.7661 10.7978 10.8369 10.8752 10.9069 10.9311 10.955 10.9771 10.9901 10.9956 11.0032 11.0095 11.0157 11.0242 11.035 11.0455 11.0566 11.0644 11.0682 11.0727 11.0814 11.0911 11.099 11.1094 11.1221 11.1298 11.1346 11.1372 11.1382 11.1403 11.1427 11.147 11.1509 11.1525 11.1515 11.1524 11.1535 11.1526 11.1486 11.1364
275.585 0.00025 4.84537 5.93388 6.99377 7.4134 7.75025 7.9827 8.19678 8.34647 8.47867 8.58274 8.67509 8.77531 8.88015 8.99122 9.08861 9.16951 9.22792 9.27779 9.32711 9.36204 9.39861 9.42418 9.44977 9.48635 9.51788 9.53625 9.57158 9.61977 9.65737 9.6909 9.72572 9.75274 9.77847 9.80688 9.83059 9.85374 9.88551 9.91356 9.94715 9.98027 10.0139 10.0448 10.0759 10.1052 10.1446 10.1935 10.2426 10.2859 10.328 10.3786 10.4194 10.4535 10.4909 10.5324 10.5718 10.6065 10.6426 10.6776 10.702 10.7343 10.7654 10.7968 10.836 10.8746 10.9065 10.9306 10.9544 10.9771 10.9905 10.9959 11.0034 11.0096 11.0159 11.0244 11.035 11.0455 11.0568 11.0647 11.0685 11.073 11.0816 11.0913 11.0992 11.1096 11.1223 11.1301 11.1349 11.1374 11.1384 11.1406 11.143 11.1472 11.1512 11.1529 11.1519 11.1528 11.1539 11.153 11.149 11.1368
275.5875 0.00025 4.84545 5.93456 6.9942 7.41208 7.74884 7.98331 8.19818 8.3465 8.4789 8.58448 8.67721 8.77576 8.87902 8.98983 9.08767 9.16873 9.22722 9.27716 9.32614 9.36136 9.39861 9.42376 9.44923 9.48634 9.51807 9.53629 9.57177 9.61977 9.65721 9.69117 9.72623 9.75331 9.77886 9.80716 9.83102 9.85417 9.88645 9.91502 9.94795 9.98044 10.0144 10.0452 10.0758 10.105 10.1443 10.1932 10.2424 10.2855 10.3275 10.3782 10.4188 10.453 10.4906 10.5319 10.5711 10.6057 10.6421 10.6775 10.7018 10.7339 10.7646 10.7957 10.8351 10.874 10.906 10.9301 10.9539 10.9769 10.9909 10.9963 11.0036 11.0098 11.0161 11.0245 11.0351 11.0456 11.057 11.0651 11.0688 11.0732 11.0818 11.0915 11.0993 11.1097 11.1226 11.1304 11.1351 11.1376 11.1386 11.1408 11.1432 11.1475 11.1516 11.1533 11.1523 11.1532 11.1542 11.1533 11.1494 11.1372
275.59 0.00025 4.84558 5.93519 6.9946 7.41075 7.7475 7.98399 8.19945 8.34642 8.47903 8.58617 8.67947 8.77632 8.87794 8.98851 9.08679 9.16793 9.22645 9.27654 9.32512 9.3606 9.39862 9.42342 9.44872 9.48624 9.51823 9.53641 9.57204 9.61979 9.65704 9.69144 9.7267 9.75385 9.77921 9.80741 9.83148 9.8546 9.88737 9.9165 9.94875 9.98057 10.0148 10.0456 10.0757 10.1049 10.1441 10.1929 10.2422 10.2851 10.3272 10.3778 10.4182 10.4526 10.4904 10.5315 10.5704 10.6049 10.6415 10.6772 10.7017 10.7335 10.7639 10.7947 10.8342 10.8734 10.9056 10.9296 10.9533 10.9768 10.9913 10.9967 11.0038 11.0099 11.0163 11.0247 11.0351 11.0457 11.0573 11.0654 11.0691 11.0735 11.0821 11.0917 11.0995 11.1099 11.1228 11.1306 11.1353 11.1378 11.1388 11.141 11.1435 11.1478 11.1519 11.1537 11.1527 11.1536 11.1546 11.1537 11.1498 11.1376
275.5925 0.00025 4.84575 5.93576 6.99494 7.40942 7.74626 7.98476 8.20057 8.34626 8.4791 8.5878 8.68184 8.77699 8.87692 8.98725 9.08596 9.16712 9.22562 9.27592 9.32404 9.35975 9.39861 9.42317 9.44826 9.48603 9.51835 9.53663 9.57239 9.61982 9.65687 9.69169 9.72713 9.75434 9.77952 9.80764 9.83195 9.85503 9.88826 9.918 9.94954 9.98067 10.0152 10.046 10.0756 10.105 10.1439 10.1924 10.242 10.2847 10.3268 10.3775 10.4176 10.4522 10.4901 10.5311 10.5697 10.6042 10.6409 10.677 10.7015 10.7332 10.7632 10.7937 10.8333 10.8728 10.9052 10.9292 10.9527 10.9765 10.9917 10.9971 11.004 11.0101 11.0166 11.0249 11.0352 11.0458 11.0575 11.0657 11.0694 11.0738 11.0823 11.0919 11.0997 11.1101 11.123 11.1309 11.1356 11.138 11.139 11.1413 11.1437 11.1481 11.1523 11.154 11.1531 11.154 11.155 11.1541 11.1502 11.138