275.5025 0.00025 0.466465 0.722435 0.925824 0.854765 0.841879 0.800433 0.751078 0.754775 0.742406 0.67312 0.635145 0.59776 0.568342 0.547312 0.53567 0.530681 0.525854 0.520102 0.516615 0.507781 0.504059 0.508085 0.50765 0.508422 0.514458 0.513312 0.506671 0.494632 0.489257 0.472275 0.457138 0.440592 0.420173 0.400941 0.388199 0.37828 0.361197 0.347403 0.34441 0.333571 0.327123 0.316375 0.295373 0.277245 0.258704 0.247124 0.242161 0.232929 0.228928 0.213848 0.200813 0.190425 0.179012 0.168689 0.159345 0.150087 0.140836 0.130298 0.117261 0.105768 0.0946129 0.0818203 0.0714766 0.0633864 0.0598259 0.0596073 0.0599754 0.0607165 0.0586214 0.054291 0.050889 0.0469214 0.0414444 0.036759 0.0326992 0.0297861 0.0291478 0.0293629 0.0290732 0.0284025 0.0268075 0.0256595 0.0241363 0.0222417 0.0222019 0.0222532 0.0206673 0.0193193 0.0183908 0.0183081 0.0187418 0.0191925 0.0197756 0.0206717 0.0219232 0.0234507 0.0254765 0.0289381 0.0332723 0.0411842
275.505 0.00025 0.465546 0.721272 0.924875 0.853049 0.840121 0.799594 0.748984 0.750475 0.7449 0.678881 0.638143 0.599012 0.569573 0.548509 0.536623 0.53122 0.525848 0.520238 0.517845 0.509468 0.505088 0.508772 0.507787 0.50814 0.513854 0.512956 0.506581 0.494373 0.488751 0.471785 0.4559 0.439544 0.419346 0.399561 0.387181 0.377724 0.360375 0.345869 0.343094 0.333124 0.326797 0.316966 0.296377 0.277958 0.259558 0.246733 0.241491 0.23317 0.229259 0.214072 0.201688 0.190933 0.179188 0.169191 0.159838 0.150451 0.141055 0.130505 0.117564 0.106221 0.0949474 0.0821288 0.0717561 0.0634774 0.0596695 0.0594801 0.0598998 0.0605431 0.0585375 0.0543032 0.0508873 0.0469772 0.0415866 0.0369291 0.0328331 0.0298281 0.029139 0.0293519 0.0290697 0.0284156 0.0268625 0.0257017 0.0241969 0.0222939 0.0222188 0.022312 0.020778 0.0194168 0.0184812 0.0183963 0.0188338 0.0192749 0.0198479 0.020739 0.0219844 0.023518 0.0255581 0.0290242 0.0333647 0.0412893
275.5075 0.00025 0.464698 0.720251 0.924136 0.851331 0.838193 0.798895 0.746875 0.745809 0.74682 0.684602 0.641486 0.60018 0.570867 0.549946 0.537566 0.531745 0.52584 0.520374 0.519134 0.511184 0.506124 0.509444 0.507902 0.507871 0.51328 0.51261 0.50648 0.494152 0.48818 0.471345 0.454744 0.438504 0.418536 0.398213 0.38609 0.377105 0.359628 0.344397 0.341746 0.332642 0.326312 0.317444 0.297457 0.278673 0.260441 0.246456 0.240724 0.2333 0.229611 0.214339 0.2025 0.191469 0.179414 0.169654 0.160337 0.150842 0.141258 0.130696 0.117878 0.106665 0.0952766 0.0824325 0.0720658 0.0635966 0.0595181 0.0593367 0.0598244 0.0603645 0.0584489 0.0543106 0.0508837 0.0470267 0.0417231 0.0371 0.0329698 0.029873 0.0291315 0.0293425 0.0290666 0.0284277 0.0269177 0.0257444 0.0242574 0.0223478 0.0222359 0.022366 0.0208865 0.0195151 0.0185733 0.0184856 0.0189265 0.0193578 0.0199206 0.020807 0.0220461 0.0235854 0.0256398 0.0291104 0.0334572 0.0413945
275.51 0.00025 0.463916 0.719365 0.923598 0.849607 0.836113 0.798288 0.74473 0.740853 0.748142 0.690146 0.645164 0.601327 0.572177 0.551641 0.538525 0.532245 0.525834 0.520519 0.520469 0.512927 0.507169 0.51009 0.508001 0.507617 0.512737 0.512268 0.506365 0.493967 0.487549 0.470951 0.453675 0.437478 0.417734 0.396917 0.384921 0.376411 0.358944 0.342992 0.340382 0.332134 0.325671 0.317783 0.298603 0.279408 0.261322 0.246298 0.2399 0.233314 0.229958 0.21467 0.20325 0.192017 0.179702 0.170075 0.160833 0.151264 0.14146 0.130864 0.118203 0.107106 0.0955996 0.0827274 0.0724051 0.0637479 0.059377 0.0591777 0.0597469 0.0601809 0.0583552 0.054314 0.0508773 0.0470707 0.0418535 0.0372713 0.0331093 0.0299211 0.0291253 0.0293346 0.0290635 0.0284389 0.0269728 0.0257877 0.0243179 0.0224033 0.0222533 0.0224154 0.0209927 0.0196142 0.0186671 0.018576 0.0190197 0.0194412 0.0199936 0.0208754 0.0221079 0.023653 0.0257216 0.0291965 0.0335498 0.0414995
275.5125 0.00025 0.463202 0.718631 0.923273 0.847902 0.83391 0.797727 0.742517 0.735657 0.748853 0.695406 0.649157 0.602535 0.573469 0.553588 0.539509 0.532708 0.525839 0.520682 0.521836 0.514693 0.508227 0.510706 0.508089 0.50738 0.512227 0.511932 0.506231 0.493814 0.486861 0.4706 0.452691 0.436467 0.416932 0.395689 0.383673 0.375631 0.358312 0.341655 0.339022 0.331613 0.324893 0.317962 0.299785 0.280178 0.262178 0.246257 0.239061 0.233206 0.230269 0.215075 0.203945 0.192561 0.180061 0.170459 0.161314 0.151714 0.141671 0.131008 0.118537 0.107545 0.0959162 0.0830084 0.0727695 0.0639343 0.0592518 0.059005 0.0596651 0.0599928 0.0582559 0.0543152 0.0508683 0.0471098 0.0419775 0.0374423 0.0332515 0.0299724 0.0291203 0.0293283 0.0290611 0.0284492 0.0270277 0.0258315 0.0243784 0.0224606 0.0222712 0.0224603 0.0210963 0.0197138 0.0187625 0.0186677 0.0191134 0.0195251 0.0200671 0.0209444 0.0221701 0.0237208 0.0258034 0.0292825 0.0336423 0.0416044
275.515 0.00025 0.46254 0.71804 0.923172 0.846264 0.831622 0.797176 0.740241 0.730276 0.748967 0.70028 0.653408 0.603894 0.574723 0.55575 0.540541 0.533129 0.525855 0.520873 0.52322 0.516473 0.509298 0.511286 0.50817 0.507163 0.511744 0.511598 0.506072 0.493682 0.486125 0.470289 0.45179 0.435476 0.416129 0.394543 0.382349 0.37475 0.357717 0.340397 0.337675 0.331081 0.323999 0.317961 0.300976 0.281 0.263 0.24632 0.238245 0.232984 0.230519 0.215552 0.204597 0.193088 0.180493 0.170814 0.161772 0.152192 0.141906 0.131128 0.118875 0.107984 0.0962281 0.0832734 0.0731548 0.064157 0.0591483 0.0588208 0.0595761 0.0597997 0.0581504 0.0543143 0.0508561 0.0471442 0.0420948 0.0376122 0.033396 0.0300269 0.0291164 0.0293236 0.0290591 0.0284584 0.0270822 0.0258759 0.0244388 0.0225194 0.0222899 0.0225009 0.0211969 0.0198139 0.0188595 0.0187605 0.0192076 0.0196095 0.0201409 0.0210139 0.0222324 0.0237887 0.0258851 0.0293685 0.0337347 0.041709
275.5175 0.00025 0.461925 0.717587 0.923276 0.844698 0.829251 0.796606 0.737893 0.724736 0.748491 0.704672 0.657839 0.605485 0.575928 0.558096 0.541652 0.533515 0.525889 0.521108 0.524611 0.518258 0.510383 0.511828 0.508249 0.50697 0.511289 0.511268 0.505893 0.493563 0.485359 0.470011 0.450973 0.434513 0.415325 0.393488 0.380956 0.373753 0.357147 0.339222 0.336348 0.330543 0.323023 0.317774 0.302137 0.281878 0.263782 0.246466 0.237487 0.232661 0.230687 0.216085 0.20522 0.193583 0.180994 0.171152 0.162191 0.152689 0.142171 0.131228 0.119213 0.108424 0.0965368 0.0835193 0.0735547 0.0644162 0.0590716 0.0586282 0.059478 0.0596017 0.0580382 0.0543127 0.0508415 0.0471746 0.0422056 0.0377806 0.0335425 0.0300847 0.0291137 0.0293204 0.0290577 0.0284668 0.0271362 0.0259209 0.0244993 0.0225796 0.0223092 0.0225375 0.0212945 0.0199144 0.0189581 0.0188547 0.0193023 0.0196943 0.0202151 0.0210838 0.022295 0.0238567 0.0259669 0.0294542 0.0338271 0.0418134
275.52 0.00025 0.461356 0.71724 0.923604 0.843237 0.826839 0.795984 0.735473 0.719069 0.747425 0.708517 0.66237 0.607401 0.577101 0.560574 0.54286 0.533871 0.525948 0.521392 0.525996 0.520034 0.511479 0.512331 0.508324 0.506802 0.51086 0.51094 0.505689 0.493439 0.484579 0.469757 0.450234 0.433576 0.41452 0.392527 0.379509 0.372631 0.356588 0.33814 0.335044 0.330002 0.321993 0.317402 0.303228 0.282811 0.26453 0.246675 0.236816 0.232259 0.230767 0.216656 0.205833 0.194044 0.18156 0.171488 0.162566 0.153201 0.142474 0.131316 0.119545 0.108864 0.0968459 0.0837446 0.0739616 0.0647104 0.0590266 0.0584315 0.0593689 0.059398 0.0579191 0.0543099 0.0508245 0.0472011 0.0423098 0.0379465 0.0336909 0.0301458 0.0291121 0.0293188 0.0290573 0.0284742 0.0271894 0.0259665 0.0245598 0.0226413 0.0223294 0.0225702 0.0213888 0.0200149 0.0190581 0.01895 0.0193974 0.0197793 0.0202895 0.0211541 0.0223578 0.0239246 0.0260484 0.0295397 0.0339192 0.0419173
275.5225 0.00025 0.460823 0.716982 0.924142 0.84191 0.824407 0.795284 0.733007 0.713311 0.745755 0.71175 0.666894 0.609703 0.578275 0.563129 0.544179 0.534204 0.526036 0.521736 0.527365 0.521793 0.512592 0.512805 0.508405 0.506663 0.510456 0.510618 0.50546 0.493296 0.483802 0.469518 0.449567 0.43267 0.413721 0.391663 0.378022 0.371374 0.356025 0.33716 0.333757 0.329456 0.320946 0.316859 0.304212 0.283785 0.265258 0.246923 0.236252 0.231804 0.230755 0.217237 0.206446 0.194467 0.182179 0.171838 0.162886 0.153719 0.142817 0.1314 0.119866 0.109306 0.0971596 0.0839521 0.0743679 0.0650382 0.059018 0.058236 0.0592481 0.0591881 0.0577927 0.0543061 0.0508059 0.0472236 0.0424077 0.0381095 0.0338407 0.0302104 0.0291117 0.0293188 0.0290579 0.0284809 0.0272418 0.0260127 0.0246205 0.0227045 0.0223507 0.0225994 0.0214797 0.0201156 0.0191596 0.0190468 0.0194929 0.0198648 0.0203644 0.021225 0.0224208 0.0239927 0.0261299 0.029625 0.0340112 0.042021
275.525 0.00025 0.460327 0.716766 0.924884 0.840725 0.821957 0.79448 0.730534 0.707506 0.743451 0.714333 0.671295 0.612439 0.5795 0.565703 0.545613 0.534519 0.526166 0.522142 0.528713 0.523522 0.513714 0.513255 0.508493 0.506551 0.510079 0.5103 0.505201 0.49312 0.483051 0.469284 0.448968 0.431794 0.412934 0.390889 0.37651 0.369978 0.355443 0.336292 0.332478 0.328904 0.319911 0.316167 0.305053 0.284777 0.265978 0.247191 0.235809 0.231316 0.230661 0.217802 0.207064 0.194858 0.182837 0.172217 0.163149 0.154237 0.143201 0.131492 0.120173 0.109745 0.097481 0.0841436 0.074766 0.0653971 0.0590483 0.0580468 0.0591148 0.0589714 0.0576592 0.0543006 0.0507865 0.0472428 0.0424995 0.0382687 0.0339918 0.0302786 0.0291126 0.0293202 0.0290597 0.0284869 0.0272933 0.0260596 0.0246813 0.0227691 0.022373 0.0226254 0.0215671 0.0202161 0.0192626 0.0191449 0.019589 0.0199507 0.0204396 0.0212963 0.0224841 0.0240608 0.0262114 0.0297101 0.0341031 0.0421244
275.5275 0.00025 0.459883 0.716555 0.925795 0.839735 0.819491 0.793508 0.728087 0.701718 0.740491 0.716248 0.675483 0.615635 0.58085 0.568249 0.547165 0.534834 0.526351 0.522612 0.530039 0.525206 0.51484 0.513688 0.508593 0.506464 0.509727 0.509985 0.504907 0.492902 0.482342 0.469047 0.448434 0.430955 0.412164 0.390196 0.374988 0.368446 0.354827 0.335546 0.331205 0.328339 0.318915 0.315356 0.305721 0.28576 0.266702 0.247464 0.235489 0.230824 0.230497 0.218326 0.207682 0.195225 0.183517 0.172637 0.163357 0.154742 0.143625 0.131599 0.120466 0.110178 0.0978133 0.0843237 0.0751489 0.0657838 0.0591195 0.0578696 0.0589698 0.0587467 0.0575186 0.0542929 0.050767 0.0472585 0.0425853 0.0384235 0.0341433 0.0303502 0.0291146 0.0293231 0.0290628 0.0284921 0.0273434 0.0261068 0.0247423 0.0228351 0.0223964 0.0226482 0.0216507 0.0203163 0.0193669 0.0192445 0.0196853 0.0200368 0.0205151 0.021368 0.0225476 0.024129 0.0262926 0.0297949 0.0341946 0.0422272
275.53 0.00025 0.459492 0.71632 0.926868 0.838983 0.817009 0.792335 0.725712 0.696037 0.736863 0.717472 0.679369 0.619283 0.582407 0.570728 0.548827 0.535153 0.526604 0.523147 0.531331 0.526844 0.51596 0.514116 0.50871 0.5064 0.509401 0.509674 0.504572 0.492631 0.481689 0.468802 0.44796 0.430153 0.411422 0.389576 0.373474 0.366787 0.354149 0.334926 0.329931 0.327747 0.317977 0.314465 0.3062 0.2867 0.267438 0.24773 0.235293 0.230346 0.230281 0.218794 0.208291 0.195578 0.184207 0.173107 0.163517 0.155223 0.144088 0.131729 0.120744 0.110601 0.0981585 0.0844983 0.075509 0.0661923 0.0592324 0.0577098 0.058814 0.0585133 0.057371 0.0542821 0.0507481 0.0472714 0.0426657 0.0385735 0.0342953 0.0304254 0.0291181 0.0293271 0.0290673 0.0284968 0.0273922 0.0261546 0.0248036 0.0229024 0.022421 0.0226684 0.0217307 0.0204159 0.0194725 0.0193455 0.0197821 0.0201231 0.0205909 0.0214401 0.0226112 0.0241971 0.0263736 0.0298793 0.0342858 0.0423296
275.5325 0.00025 0.459143 0.716037 0.928085 0.838506 0.814504 0.790911 0.723429 0.690531 0.732559 0.717962 0.682878 0.623352 0.58424 0.573115 0.550567 0.535486 0.526943 0.523744 0.53259 0.528434 0.517067 0.514549 0.508856 0.506361 0.509105 0.509369 0.504193 0.492307 0.481098 0.468547 0.447537 0.429391 0.410714 0.38901 0.371984 0.365021 0.353392 0.334434 0.328665 0.327117 0.31711 0.313536 0.306481 0.287558 0.268188 0.247988 0.235212 0.229905 0.230033 0.219192 0.208877 0.195926 0.184892 0.173628 0.163643 0.155668 0.144583 0.131889 0.121008 0.11101 0.0985181 0.0846733 0.075841 0.0666175 0.0593873 0.0575726 0.0586487 0.0582704 0.0572164 0.0542678 0.0507296 0.0472818 0.0427407 0.0387179 0.0344471 0.0305044 0.0291231 0.0293325 0.0290736 0.028501 0.0274396 0.0262029 0.0248652 0.0229713 0.0224469 0.022686 0.0218069 0.0205149 0.0195794 0.019448 0.0198794 0.0202097 0.0206671 0.0215126 0.0226752 0.0242652 0.0264545 0.0299634 0.0343768 0.0424315
275.535 0.00025 0.458831 0.715668 0.929444 0.838341 0.812005 0.7892 0.721288 0.68529 0.727609 0.717678 0.685951 0.627786 0.586426 0.575418 0.552368 0.535848 0.527383 0.524405 0.533802 0.529976 0.518149 0.514995 0.50904 0.506339 0.508831 0.509066 0.503761 0.491935 0.48057 0.468288 0.447157 0.428679 0.410048 0.38848 0.370529 0.363171 0.352533 0.334063 0.327415 0.326427 0.316315 0.312612 0.306568 0.288302 0.26895 0.248238 0.235235 0.229522 0.229774 0.21952 0.209423 0.196276 0.185566 0.1742 0.163757 0.15606 0.145105 0.132086 0.121261 0.111403 0.098891 0.084857 0.0761434 0.0670526 0.0595835 0.0574624 0.0584769 0.0580178 0.0570551 0.0542497 0.0507121 0.0472902 0.0428106 0.0388564 0.034598 0.030587 0.0291297 0.0293388 0.0290815 0.0285048 0.0274854 0.0262514 0.024927 0.0230415 0.0224739 0.0227013 0.0218792 0.0206128 0.0196873 0.019552 0.019977 0.0202964 0.0207435 0.0215855 0.0227392 0.0243333 0.0265349 0.030047 0.0344673 0.0425327
275.5375 0.00025 0.458546 0.71525 0.930928 0.8385 0.809499 0.787169 0.719307 0.680388 0.722095 0.716578 0.688543 0.632504 0.589017 0.577645 0.554194 0.53625 0.527941 0.525133 0.534959 0.531473 0.519193 0.515461 0.509272 0.506335 0.508581 0.508767 0.503272 0.491516 0.480099 0.468027 0.446808 0.428022 0.409425 0.387965 0.369122 0.361265 0.351555 0.333807 0.326205 0.32566 0.31559 0.311733 0.306472 0.288904 0.269709 0.248479 0.235345 0.22921 0.229525 0.219778 0.209911 0.19663 0.186217 0.174815 0.16388 0.156388 0.145645 0.132323 0.121506 0.111774 0.0992757 0.0850536 0.0764144 0.06749 0.0598188 0.0573826 0.0583017 0.0577555 0.0568866 0.0542274 0.050695 0.0472974 0.0428756 0.0389885 0.0347477 0.0306732 0.0291381 0.0293462 0.0290914 0.0285085 0.0275294 0.0263003 0.0249893 0.0231131 0.0225022 0.0227147 0.0219477 0.0207097 0.0197962 0.0196574 0.020075 0.0203833 0.0208202 0.0216587 0.0228034 0.0244013 0.0266152 0.0301302 0.0345575 0.0426334
275.54 0.00025 0.458273 0.714772 0.932516 0.838985 0.807048 0.78479 0.717503 0.675874 0.716112 0.714634 0.690608 0.637409 0.592059 0.579827 0.556011 0.536709 0.52862 0.525935 0.536054 0.532932 0.520191 0.515948 0.50956 0.506348 0.50835 0.508465 0.502724 0.491059 0.479673 0.467769 0.446485 0.427429 0.408848 0.387441 0.367775 0.359334 0.350444 0.333645 0.325051 0.324794 0.314923 0.310933 0.306214 0.289343 0.27045 0.248718 0.23553 0.22898 0.229304 0.219979 0.21033 0.196984 0.186845 0.175464 0.164039 0.156647 0.14619 0.132607 0.121746 0.112122 0.099672 0.0852691 0.0766575 0.0679226 0.0600928 0.0573357 0.0581266 0.0574838 0.056711 0.0542013 0.0506784 0.0473041 0.0429364 0.039114 0.0348959 0.0307629 0.0291485 0.0293545 0.0291032 0.0285121 0.0275717 0.0263493 0.025052 0.0231863 0.0225317 0.0227263 0.0220125 0.0208053 0.0199062 0.0197645 0.0201734 0.0204704 0.0208973 0.0217323 0.0228679 0.0244692 0.0266951 0.0302129 0.0346472 0.0427335
275.5425 0.00025 0.458027 0.714241 0.934214 0.839764 0.804701 0.782043 0.715896 0.671807 0.709794 0.711824 0.692131 0.642388 0.595566 0.581999 0.557788 0.537231 0.529424 0.526815 0.537073 0.534356 0.521134 0.51646 0.509913 0.506383 0.508134 0.508161 0.502117 0.490574 0.479286 0.46752 0.446178 0.426907 0.40831 0.386886 0.366498 0.357408 0.349191 0.333558 0.323981 0.323819 0.31429 0.310232 0.305826 0.28961 0.271151 0.248951 0.235773 0.228838 0.229125 0.22013 0.210672 0.19733 0.187449 0.176131 0.164252 0.156838 0.146726 0.13294 0.121986 0.112444 0.100077 0.0855082 0.0768751 0.0683415 0.0604025 0.0573231 0.0579553 0.0572032 0.0565275 0.0541714 0.0506617 0.0473109 0.0429931 0.0392322 0.0350415 0.0308561 0.029161 0.0293635 0.0291169 0.0285156 0.027612 0.0263982 0.0251151 0.023261 0.0225623 0.0227364 0.0220735 0.0208994 0.020017 0.0198731 0.0202723 0.0205575 0.0209745 0.0218061 0.0229325 0.024537 0.0267746 0.0302951 0.0347364 0.0428328
275.545 0.00025 0.457805 0.71369 0.935981 0.840784 0.802513 0.778929 0.714486 0.668228 0.703273 0.708169 0.693103 0.647322 0.599541 0.584213 0.559494 0.537834 0.530358 0.527787 0.538009 0.535751 0.52202 0.516998 0.510335 0.506443 0.507928 0.507852 0.501454 0.490071 0.478929 0.467281 0.445888 0.426463 0.407809 0.386285 0.365303 0.355518 0.347795 0.333524 0.323013 0.322731 0.313671 0.309644 0.305349 0.289696 0.271792 0.249184 0.236061 0.228783 0.229 0.220248 0.210934 0.197653 0.188029 0.176805 0.164536 0.156969 0.147231 0.133325 0.122232 0.11274 0.100487 0.085773 0.0770733 0.068739 0.0607449 0.0573459 0.0577914 0.0569156 0.0563354 0.0541376 0.0506443 0.0473182 0.0430463 0.0393433 0.0351844 0.0309525 0.0291759 0.0293733 0.0291327 0.0285195 0.0276505 0.0264471 0.0251787 0.0233374 0.0225943 0.0227452 0.0221309 0.0209917 0.0201284 0.0199833 0.0203716 0.0206447 0.0210521 0.0218804 0.0229973 0.0246047 0.0268538 0.0303768 0.0348252 0.0429315
275.5475 0.00025 0.457573 0.713184 0.937833 0.841972 0.800547 0.77544 0.713257 0.665116 0.696676 0.703716 0.693503 0.65208 0.603946 0.586514 0.561113 0.538518 0.531416 0.528864 0.538854 0.537115 0.52285 0.517557 0.510832 0.506533 0.507728 0.507536 0.500738 0.489554 0.478596 0.467048 0.445611 0.426099 0.407335 0.385623 0.364193 0.353684 0.34626 0.333514 0.322161 0.321537 0.313038 0.309169 0.304824 0.289613 0.272351 0.249412 0.23638 0.228818 0.228935 0.220349 0.21112 0.197942 0.188585 0.177473 0.164899 0.157055 0.147686 0.13376 0.122486 0.113008 0.1009 0.0860661 0.0772577 0.0691089 0.0611164 0.057404 0.0576373 0.0566228 0.0561348 0.0541008 0.0506259 0.0473266 0.0430966 0.0394466 0.0353237 0.0310519 0.0291931 0.0293835 0.0291504 0.0285235 0.0276869 0.0264956 0.0252426 0.0234154 0.0226274 0.0227529 0.0221848 0.0210822 0.0202406 0.020095 0.0204714 0.020732 0.02113 0.0219548 0.0230622 0.0246723 0.0269326 0.030458 0.0349133 0.0430293
275.55 0.00025 0.45734 0.712749 0.939761 0.843198 0.798887 0.771628 0.712189 0.662458 0.690139 0.698557 0.693337 0.656551 0.608715 0.588935 0.562635 0.53928 0.532592 0.530056 0.539609 0.538444 0.523628 0.518138 0.511406 0.506654 0.507533 0.507213 0.49998 0.489028 0.478284 0.466819 0.445353 0.425816 0.406879 0.384892 0.363172 0.351929 0.3446 0.333509 0.32143 0.320257 0.312365 0.308791 0.304293 0.28937 0.27281 0.249634 0.236716 0.228936 0.228934 0.220449 0.211237 0.198183 0.189111 0.178124 0.165346 0.157117 0.148071 0.134244 0.122757 0.113251 0.101313 0.0863881 0.0774353 0.0694464 0.0615122 0.0574974 0.0574957 0.0563281 0.0559246 0.0540606 0.0506065 0.0473366 0.0431444 0.0395422 0.0354589 0.0311542 0.029213 0.0293943 0.0291702 0.028528 0.0277213 0.0265436 0.0253068 0.023495 0.0226616 0.0227597 0.0222352 0.0211706 0.0203531 0.0202082 0.0205717 0.0208194 0.0212081 0.0220296 0.0231274 0.0247397 0.027011 0.0305385 0.035001 0.0431265
275.5525 0.00025 0.457099 0.712429 0.941766 0.844374 0.797579 0.767564 0.711247 0.660203 0.683746 0.6928 0.692612 0.660641 0.61376 0.59152 0.564077 0.540111 0.533872 0.531369 0.54028 0.539732 0.524365 0.518733 0.512054 0.506807 0.507337 0.506877 0.499184 0.488501 0.47799 0.46659 0.445115 0.425606 0.406434 0.384088 0.36224 0.350267 0.342832 0.333481 0.320816 0.318912 0.311626 0.308482 0.303788 0.288997 0.273149 0.249846 0.237051 0.229129 0.228995 0.220562 0.211296 0.198372 0.189604 0.178752 0.165874 0.157179 0.148368 0.134767 0.123047 0.113474 0.10172 0.0867388 0.0776127 0.0697493 0.0619276 0.0576268 0.0573677 0.0560348 0.0557045 0.0540168 0.050586 0.047348 0.0431905 0.0396301 0.0355896 0.0312591 0.029236 0.0294054 0.0291919 0.0285332 0.0277539 0.0265911 0.0253715 0.0235765 0.0226971 0.0227658 0.0222825 0.0212569 0.020466 0.020323 0.0206725 0.0209068 0.0212866 0.0221047 0.0231927 0.024807 0.027089 0.0306185 0.0350881 0.0432229
275.555 0.00025 0.456855 0.712259 0.943818 0.845365 0.796653 0.763327 0.710399 0.658308 0.677566 0.686601 0.691367 0.664272 0.618956 0.594285 0.56547 0.540998 0.535246 0.532802 0.540877 0.540963 0.525068 0.519344 0.512772 0.506996 0.507141 0.506528 0.498361 0.487974 0.47771 0.466354 0.444899 0.42546 0.405999 0.383213 0.361396 0.34871 0.340981 0.333408 0.320318 0.31754 0.310806 0.308212 0.303338 0.288526 0.273365 0.250042 0.237377 0.229392 0.229114 0.220702 0.211309 0.198502 0.190054 0.179355 0.166478 0.157262 0.148575 0.135317 0.12336 0.113678 0.10212 0.087117 0.077795 0.0700158 0.0623548 0.0577915 0.0572531 0.0557463 0.0554741 0.0539692 0.0505643 0.0473605 0.0432353 0.03971 0.0357152 0.0313662 0.0292619 0.0294169 0.0292155 0.0285389 0.0277844 0.0266377 0.0254365 0.0236597 0.0227338 0.0227713 0.0223265 0.0213408 0.0205789 0.0204392 0.0207737 0.0209941 0.0213652 0.0221799 0.0232581 0.0248741 0.0271664 0.0306978 0.0351745 0.0433183
275.5575 0.00025 0.45662 0.712244 0.945928 0.846078 0.796115 0.759039 0.709617 0.656722 0.671628 0.68009 0.689634 0.667411 0.624158 0.597239 0.566859 0.541933 0.536698 0.534352 0.54142 0.542123 0.525753 0.51997 0.51355 0.507224 0.506941 0.506162 0.497518 0.487456 0.477441 0.466107 0.444707 0.425363 0.405567 0.382272 0.360635 0.34726 0.339078 0.333267 0.319927 0.31617 0.309898 0.307934 0.302946 0.287988 0.273452 0.250216 0.237678 0.229718 0.229287 0.220878 0.211291 0.198572 0.190448 0.179933 0.167148 0.157383 0.14869 0.135876 0.123699 0.113869 0.102509 0.0875205 0.0779878 0.0702489 0.0627875 0.0579921 0.0571524 0.0554665 0.0552337 0.0539167 0.0505423 0.0473743 0.0432797 0.0397822 0.0358352 0.0314752 0.029291 0.0294287 0.029241 0.0285454 0.027813 0.0266832 0.0255017 0.0237448 0.0227717 0.0227764 0.0223675 0.0214222 0.0206919 0.0205568 0.0208756 0.0210814 0.0214442 0.0222554 0.0233237 0.024941 0.0272433 0.0307764 0.0352603 0.0434128
275.56 0.00025 0.456372 0.712431 0.948055 0.846446 0.795911 0.754839 0.70884 0.655394 0.665945 0.673415 0.687466 0.670061 0.629211 0.600367 0.568293 0.5429 0.538215 0.536008 0.541929 0.543194 0.526437 0.520612 0.514381 0.507493 0.506741 0.50578 0.49667 0.486957 0.477179 0.46585 0.444541 0.425299 0.405144 0.381274 0.359948 0.345916 0.337157 0.333038 0.31963 0.314833 0.308906 0.307618 0.302621 0.287425 0.273427 0.250361 0.237944 0.230095 0.229504 0.221092 0.21126 0.19859 0.190772 0.180488 0.167871 0.157556 0.148725 0.136425 0.124067 0.114053 0.102887 0.0879467 0.0781958 0.0704521 0.0632169 0.0582281 0.0570647 0.055198 0.0549845 0.053859 0.0505204 0.0473893 0.0433243 0.0398469 0.0359494 0.0315857 0.0293237 0.0294409 0.0292683 0.028553 0.02784 0.0267277 0.0255672 0.0238319 0.0228109 0.0227814 0.0224057 0.0215011 0.0208048 0.0206759 0.020978 0.0211688 0.0215235 0.0223312 0.0233896 0.0250078 0.0273199 0.0308544 0.0353455 0.0435066
275.5625 0.00025 0.456107 0.712819 0.950186 0.846445 0.795982 0.75085 0.708046 0.654286 0.660523 0.666713 0.684931 0.672258 0.633965 0.603643 0.569823 0.543894 0.539779 0.537759 0.542431 0.544158 0.527135 0.521272 0.515253 0.507808 0.506536 0.505379 0.495825 0.486484 0.476919 0.465581 0.444395 0.425251 0.40473 0.380227 0.359325 0.344672 0.335249 0.332704 0.319415 0.313558 0.307841 0.30723 0.302343 0.28686 0.273304 0.25047 0.238167 0.230515 0.229758 0.221342 0.21123 0.198563 0.191016 0.181024 0.168632 0.157786 0.1487 0.136939 0.124463 0.114233 0.103252 0.0883928 0.0784207 0.070631 0.0636351 0.0584985 0.0569908 0.0549445 0.0547282 0.0537947 0.0504992 0.047406 0.0433698 0.0399043 0.0360571 0.0316972 0.02936 0.0294534 0.0292973 0.0285617 0.0278652 0.0267708 0.0256328 0.0239208 0.0228515 0.0227862 0.0224413 0.0215774 0.0209173 0.0207963 0.0210811 0.0212561 0.021603 0.0224072 0.0234555 0.0250743 0.0273958 0.0309316 0.03543 0.0435995
275.565 0.00025 0.455824 0.713441 0.952302 0.846103 0.796253 0.747187 0.707215 0.653374 0.655352 0.660069 0.682085 0.674055 0.638281 0.607002 0.571492 0.544919 0.541368 0.539586 0.542956 0.544999 0.527856 0.521949 0.516157 0.508169 0.506329 0.504951 0.494992 0.486043 0.476655 0.465292 0.444265 0.425204 0.404329 0.379148 0.358758 0.343524 0.333387 0.332254 0.319268 0.312364 0.306721 0.306739 0.302089 0.286314 0.273115 0.250542 0.238338 0.230959 0.230039 0.221619 0.211219 0.198501 0.191172 0.181543 0.169419 0.158077 0.14864 0.137398 0.124883 0.114416 0.103605 0.0888549 0.0786653 0.0707923 0.064035 0.0588014 0.0569312 0.054707 0.0544667 0.0537231 0.0504787 0.0474242 0.0434162 0.0399547 0.0361579 0.0318093 0.0293999 0.0294661 0.0293279 0.0285715 0.0278889 0.0268125 0.0256983 0.0240118 0.0228935 0.0227911 0.0224745 0.021651 0.0210293 0.020918 0.0211848 0.0213434 0.0216827 0.0224833 0.0235216 0.0251406 0.0274712 0.0310081 0.0355138 0.0436913
275.5675 0.00025 0.455518 0.71429 0.954357 0.845421 0.79664 0.743954 0.70632 0.652613 0.650441 0.653578 0.678997 0.675522 0.642055 0.610371 0.573323 0.545984 0.542959 0.54147 0.543528 0.545702 0.528616 0.522648 0.517082 0.508581 0.506117 0.504495 0.494185 0.48565 0.476388 0.464982 0.444144 0.425146 0.403945 0.378053 0.358232 0.342457 0.331601 0.331681 0.319167 0.311268 0.305568 0.306131 0.301824 0.285797 0.272891 0.250577 0.238458 0.231416 0.230342 0.221914 0.211238 0.198411 0.191239 0.182044 0.170222 0.158424 0.148564 0.137787 0.125317 0.114606 0.103948 0.08933 0.0789303 0.070942 0.0644118 0.0591329 0.0568864 0.0544865 0.054202 0.053643 0.050459 0.0474445 0.0434641 0.0399987 0.0362515 0.0319214 0.0294436 0.0294793 0.0293599 0.0285825 0.0279111 0.0268524 0.0257638 0.0241047 0.022937 0.0227963 0.0225054 0.021722 0.0211406 0.0210409 0.0212892 0.0214307 0.0217628 0.0225597 0.0235879 0.0252067 0.0275461 0.0310839 0.0355968 0.0437823
275.57 0.00025 0.455186 0.715346 0.956315 0.844454 0.797094 0.741211 0.705358 0.651951 0.645792 0.647308 0.675732 0.676726 0.645248 0.613664 0.575322 0.547113 0.544526 0.543393 0.544173 0.54626 0.529417 0.523371 0.518018 0.509047 0.505907 0.504005 0.493409 0.485309 0.47611 0.464645 0.444024 0.42507 0.403578 0.376959 0.357732 0.341464 0.32991 0.330984 0.319094 0.310284 0.304411 0.3054 0.301512 0.285309 0.272661 0.250585 0.238525 0.231871 0.230663 0.222214 0.211302 0.198304 0.191223 0.182521 0.171034 0.158824 0.148496 0.138099 0.125755 0.114807 0.10428 0.089816 0.0792159 0.0710863 0.0647613 0.059487 0.0568585 0.0542829 0.0539367 0.0535538 0.0504399 0.0474671 0.0435135 0.0400369 0.0363375 0.0320331 0.0294912 0.029493 0.0293931 0.0285947 0.027932 0.0268906 0.0258289 0.0241996 0.022982 0.0228016 0.0225341 0.0217902 0.0212509 0.0211649 0.0213942 0.021518 0.0218431 0.0226361 0.0236543 0.0252725 0.0276203 0.0311589 0.035679 0.0438722
275.5725 0.00025 0.454839 0.716577 0.958157 0.843263 0.797564 0.738995 0.704341 0.651338 0.641426 0.641301 0.672334 0.677713 0.647853 0.616791 0.577469 0.548339 0.546043 0.545334 0.544909 0.546671 0.530263 0.524126 0.518956 0.509566 0.505698 0.503473 0.492675 0.485031 0.475821 0.464272 0.443902 0.424973 0.403226 0.375883 0.357245 0.340534 0.328332 0.330171 0.319032 0.309419 0.303273 0.304549 0.301116 0.284844 0.272447 0.250582 0.238546 0.23231 0.230996 0.222508 0.211415 0.198186 0.191138 0.182965 0.171847 0.159268 0.148454 0.138335 0.12618 0.115023 0.104605 0.0903095 0.0795229 0.0712314 0.0650823 0.0598577 0.0568501 0.0540954 0.0536735 0.0534552 0.0504211 0.0474929 0.0435647 0.0400698 0.0364157 0.0321437 0.0295426 0.0295071 0.0294273 0.0286083 0.0279519 0.026927 0.0258938 0.0242964 0.0230287 0.0228074 0.0225609 0.0218558 0.0213603 0.0212899 0.0215 0.0216053 0.0219237 0.0227128 0.0237208 0.0253381 0.0276941 0.0312332 0.0357606 0.0439611
275.575 0.00025 0.454475 0.717935 0.959818 0.84191 0.797993 0.737323 0.703259 0.65071 0.637373 0.6356 0.668828 0.678515 0.649903 0.619658 0.579711 0.549689 0.547484 0.547265 0.545746 0.546941 0.531151 0.524918 0.51989 0.510142 0.505499 0.502897 0.491993 0.484823 0.475524 0.463852 0.443772 0.424853 0.402887 0.374845 0.35676 0.339663 0.326883 0.32925 0.318959 0.308682 0.302179 0.303592 0.300607 0.284379 0.272262 0.250586 0.238528 0.232719 0.231334 0.222786 0.211577 0.198061 0.191004 0.183367 0.172661 0.159748 0.148451 0.138505 0.126578 0.115256 0.104925 0.0908103 0.07985 0.0713825 0.0653749 0.0602377 0.0568637 0.0539231 0.0534146 0.0533474 0.0504022 0.0475221 0.0436181 0.0400985 0.0364863 0.0322531 0.029598 0.029522 0.0294625 0.0286232 0.0279707 0.0269614 0.025958 0.0243952 0.0230771 0.0228137 0.0225859 0.0219188 0.0214683 0.0214159 0.0216066 0.0216926 0.0220046 0.0227896 0.0237875 0.0254034 0.0277671 0.0313066 0.0358413 0.044049
275.5775 0.00025 0.454078 0.719384 0.961286 0.840456 0.798352 0.736205 0.702143 0.650003 0.633665 0.630238 0.665251 0.679132 0.651465 0.622207 0.58198 0.551187 0.548844 0.549162 0.546698 0.547085 0.532074 0.525755 0.520812 0.510776 0.505311 0.502268 0.49137 0.484685 0.475218 0.46337 0.443628 0.424715 0.402553 0.373861 0.356261 0.338842 0.325566 0.328233 0.318859 0.308067 0.30115 0.302541 0.299957 0.283898 0.272116 0.25062 0.238488 0.233089 0.231668 0.223042 0.211781 0.197936 0.190842 0.183716 0.173472 0.160256 0.148491 0.13862 0.126931 0.115506 0.105241 0.0913183 0.0801958 0.0715438 0.0656401 0.0606196 0.0569021 0.0537646 0.0531617 0.0532304 0.0503827 0.0475549 0.0436742 0.0401233 0.036549 0.0323603 0.0296573 0.0295377 0.0294987 0.0286396 0.0279888 0.0269938 0.0260215 0.0244958 0.0231275 0.0228207 0.0226094 0.0219792 0.0215749 0.0215428 0.0217139 0.0217801 0.0220859 0.0228665 0.0238545 0.0254686 0.0278396 0.0313793 0.0359213 0.044136