275.5025 0.00025 5537.64 1696.21 1957.46 2098.72 1607.01 1580.88 1535.32 1275.62 1145.04 1077.49 993.975 868.125 775.909 758.065 696.055 607.999 513.432 465.937 462.113 460.212 434.916 413.7 394.729 383.156 375.52 374.278 342.904 332.091 321.544 318.451 307.541 315.384 297.967 278.032 280.793 282.568 302.302 300.105 288.033 292.974 288.807 314.815 326.16 318.666 318.704 327.002 311.682 287.717 266.071 234.683 203.635 191.901 196.13 193.8 191.671 176.15 156.195 138.681 138.836 128.418 124.528 113.594 103.678 87.5741 76.8946 72.7145 72.137 65.1783 61.5793 54.344 50.4428 43.1842 36.67 34.9197 30.1052 28.3266 28.7431 26.9483 26.363 27.3501 25.1017 23.9331 23.5546 25.1532 23.0872 20.9276 22.3333 21.687 21.2692 19.7335 17.2573 15.1937 14.3481 13.1428 13.6392 16.1546 17.7649 19.0056 24.5194 10.3021
275.505 0.00025 5528.05 1692.28 1955.3 2098.28 1605.93 1571.59 1535.71 1285.91 1144.22 1077.71 997.717 871.337 776.165 757.253 693.759 609.596 514.279 467.88 463.777 459.859 434.654 415.499 396.363 382.866 375.495 373.039 343.197 331.252 321.789 319.918 307.138 315.424 298.819 279.319 279.907 281.148 300.94 301.662 288.327 290.982 287.764 313.469 325.941 319.462 315.363 326.023 313.43 287.899 266.611 237.757 204.493 191.93 195.972 193.071 192.276 176.554 156.607 139.298 139.401 128.755 125.442 114.142 103.772 87.4915 77.1898 72.899 72.0558 65.6156 61.7259 54.5355 50.7026 43.5336 36.8704 34.9496 30.1101 28.3682 28.7449 26.9275 26.3146 27.392 25.0659 23.9059 23.4519 25.0341 23.118 20.9733 22.3197 21.728 21.3155 19.8324 17.3038 15.2167 14.3479 13.1308 13.6308 16.1449 17.754 18.9914 24.4843 10.289
275.5075 0.00025 5519.42 1689.08 1953.71 2097.31 1606.73 1562.15 1534.62 1296.16 1144.3 1077.93 1000.83 875.277 776.54 756.126 691.841 610.795 515.027 470.224 465.469 459.516 434.492 417.338 398.068 382.492 375.42 371.85 343.664 330.278 322.183 321.38 306.695 315.169 299.831 280.713 278.922 279.951 299.438 302.956 289.068 288.633 286.785 312.109 325.509 320.536 312.067 324.72 315.269 288.175 267.049 240.415 205.686 192.199 195.725 192.456 192.747 176.899 157.021 139.96 139.966 129.117 126.27 114.792 103.852 87.4119 77.4604 73.1233 71.9123 66.0677 61.8706 54.7492 50.9444 43.8744 37.0874 34.9797 30.1166 28.4083 28.7462 26.9046 26.2678 27.4309 25.0309 23.8798 23.3563 24.9137 23.1387 21.0265 22.3062 21.7675 21.3579 19.9303 17.3526 15.2408 14.3487 13.1189 13.6229 16.1348 17.7431 18.9777 24.4493 10.2757
275.51 0.00025 5511.74 1686.52 1952.59 2095.7 1609.39 1552.59 1532.15 1305.93 1145.6 1078.17 1003.29 879.828 777.243 754.521 690.341 611.572 515.67 472.891 467.26 459.196 434.385 419.235 399.798 382.075 375.272 370.727 344.279 329.183 322.786 322.78 306.199 314.646 301.028 282.114 277.907 278.944 297.861 303.947 290.169 286.052 285.843 310.762 324.852 321.791 308.962 323.061 317.115 288.552 267.513 242.574 207.143 192.765 195.391 191.972 193.068 177.203 157.413 140.68 140.524 129.513 127.01 115.536 103.925 87.3444 77.6993 73.3859 71.7161 66.5214 62.021 54.9791 51.1768 44.2011 37.3215 35.0102 30.1248 28.4466 28.7474 26.8794 26.2225 27.4667 24.9969 23.8546 23.2676 24.7928 23.149 21.0863 22.2937 21.8054 21.3966 20.0269 17.4038 15.2661 14.3506 13.107 13.6156 16.1245 17.7322 18.9643 24.4143 10.2624
275.5125 0.00025 5505.06 1684.61 1951.77 2093.4 1613.92 1542.87 1528.39 1314.96 1148.3 1078.5 1005.13 884.813 778.436 752.361 689.252 611.93 516.21 475.79 469.21 458.921 434.284 421.208 401.514 381.656 375.027 369.678 345.015 327.998 323.643 324.053 305.641 313.894 302.417 283.438 276.932 278.086 296.256 304.624 291.507 283.393 284.89 309.463 323.971 323.127 306.172 321.055 318.883 289.024 268.101 244.216 208.755 193.679 194.985 191.627 193.238 177.471 157.771 141.462 141.077 129.949 127.661 116.359 103.998 87.2997 77.9026 73.6815 71.4792 66.9637 62.1842 55.2199 51.4075 44.5098 37.5719 35.0417 30.1349 28.4835 28.7486 26.8521 26.1788 27.4991 24.9641 23.8299 23.1857 24.6724 23.149 21.1518 22.2829 21.8415 21.4316 20.1216 17.4574 15.2926 14.3536 13.0952 13.6087 16.1139 17.7212 18.9513 24.3795 10.249
275.515 0.00025 5499.31 1683.31 1951.1 2090.39 1620.29 1532.94 1523.54 1323.09 1152.35 1079.08 1006.39 890.001 780.201 749.639 688.534 611.911 516.657 478.826 471.358 458.729 434.135 423.249 403.197 381.273 374.666 368.703 345.84 326.777 324.777 325.143 305.022 312.956 303.986 284.621 276.058 277.35 294.658 305.004 292.939 280.826 283.867 308.241 322.876 324.45 303.791 318.749 320.487 289.579 268.871 245.387 210.396 194.976 194.538 191.41 193.273 177.696 158.097 142.296 141.629 130.43 128.229 117.244 104.077 87.2883 78.07 74.0023 71.215 67.382 62.3647 55.4676 51.6419 44.7985 37.837 35.075 30.1469 28.5188 28.7501 26.8227 26.1365 27.5279 24.9327 23.8053 23.1103 24.5532 23.1387 21.2219 22.2744 21.8758 21.4633 20.2142 17.5134 15.3204 14.3577 13.0834 13.6024 16.103 17.7102 18.9387 24.3447 10.2356
275.5175 0.00025 5494.41 1682.6 1950.43 2086.68 1628.4 1522.71 1517.88 1330.24 1157.51 1080.16 1007.2 895.143 782.55 746.431 688.104 611.582 517.019 481.916 473.711 458.678 433.89 425.333 404.855 380.951 374.168 367.787 346.722 325.598 326.175 326.013 304.341 311.879 305.705 285.623 275.328 276.722 293.082 305.118 294.32 278.503 282.727 307.12 321.592 325.663 301.877 316.222 321.84 290.208 269.835 246.184 211.935 196.66 194.104 191.292 193.212 177.859 158.401 143.17 142.185 130.96 128.72 118.171 104.169 87.3187 78.2051 74.3383 70.9374 67.7654 62.5648 55.7209 51.8832 45.0671 38.1146 35.1109 30.161 28.5529 28.7519 26.7913 26.0956 27.553 24.9029 23.7802 23.0412 24.4361 23.1184 21.2956 22.269 21.9083 21.4917 20.3043 17.572 15.3495 14.3629 13.0718 13.5967 16.0919 17.6992 18.9264 24.31 10.2221
275.52 0.00025 5490.17 1682.59 1949.68 2082.41 1638.09 1512.21 1511.83 1336.36 1163.34 1082.03 1007.68 899.963 785.433 742.889 687.86 611.027 517.293 484.998 476.242 458.833 433.52 427.414 406.517 380.713 373.519 366.916 347.636 324.553 327.783 326.663 303.591 310.713 307.529 286.425 274.771 276.203 291.53 305.001 295.536 276.544 281.443 306.103 320.143 326.685 300.446 313.577 322.865 290.906 270.968 246.733 213.264 198.697 193.759 191.225 193.109 177.934 158.697 144.07 142.747 131.545 129.144 119.121 104.277 87.3962 78.3154 74.6776 70.6598 68.106 62.7829 55.9806 52.132 45.317 38.4016 35.1502 30.1772 28.5858 28.7542 26.7582 26.0558 27.5743 24.8751 23.7545 22.9782 24.3218 23.0886 21.3717 22.2673 21.9389 21.517 20.3915 17.6331 15.38 14.3691 13.0602 13.5915 16.0805 17.6881 18.9145 24.2754 10.2086
275.5225 0.00025 5486.46 1683.39 1948.98 2077.82 1649.06 1501.63 1505.87 1341.4 1169.47 1084.89 1008.05 904.187 788.764 739.238 687.696 610.345 517.466 488.04 478.888 459.267 433.015 429.417 408.232 380.57 372.704 366.061 348.561 323.738 329.507 327.129 302.755 309.51 309.396 287.023 274.406 275.802 289.999 304.682 296.514 275.014 280.022 305.18 318.566 327.449 299.482 310.929 323.498 291.675 272.214 247.161 214.318 201.009 193.592 191.157 193.019 177.897 158.994 144.989 143.316 132.191 129.51 120.073 104.411 87.5202 78.4122 75.0088 70.3944 68.3987 63.0148 56.25 52.3871 45.551 38.6951 35.1938 30.1955 28.6176 28.757 26.7236 26.017 27.5914 24.8494 23.7278 22.9209 24.211 23.0498 21.4489 22.2696 21.9679 21.5395 20.4754 17.6967 15.412 14.3765 13.0489 13.5869 16.0689 17.6769 18.903 24.241 10.1949
275.525 0.00025 5483.04 1685.1 1948.44 2073.12 1661.03 1491.37 1500.33 1345.23 1175.6 1088.81 1008.58 907.584 792.438 735.761 687.51 609.629 517.519 491.038 481.567 460.039 432.401 431.25 410.055 380.537 371.708 365.198 349.49 323.247 331.23 327.477 301.809 308.326 311.234 287.423 274.253 275.523 288.488 304.179 297.225 273.925 278.511 304.321 316.901 327.908 298.937 308.388 323.697 292.515 273.512 247.575 215.089 203.482 193.69 191.045 192.996 177.735 159.289 145.926 143.891 132.9 129.829 121.009 104.578 87.6848 78.5096 75.3217 70.1507 68.642 63.2528 56.5333 52.6464 45.7718 38.9921 35.2423 30.2159 28.6485 28.7604 26.6878 25.9791 27.6044 24.8262 23.6996 22.869 24.1041 23.0027 21.5262 22.2764 21.9954 21.5592 20.5558 17.7627 15.4456 14.385 13.0378 13.5827 16.0571 17.6657 18.8919 24.2066 10.1813
275.5275 0.00025 5479.78 1687.77 1948.25 2068.38 1673.61 1481.95 1495.38 1347.68 1181.68 1093.65 1009.55 910.012 796.341 732.772 687.217 608.947 517.425 494.009 484.193 461.186 431.734 432.82 412.028 380.636 370.514 364.295 350.429 323.144 332.834 327.782 300.735 307.22 312.956 287.643 274.335 275.363 286.998 303.496 297.675 273.24 276.99 303.485 315.191 328.034 298.747 306.059 323.442 293.418 274.803 248.045 215.623 205.987 194.123 190.868 193.067 177.458 159.566 146.886 144.47 133.672 130.117 121.916 104.783 87.8799 78.623 75.6081 69.9359 68.8377 63.4878 56.8347 52.9072 45.982 39.2901 35.2961 30.2387 28.6785 28.7643 26.651 25.9419 27.613 24.8057 23.6696 22.8221 24.0016 22.948 21.6023 22.2878 22.0217 21.5763 20.6323 17.8311 15.4809 14.3946 13.0269 13.5792 16.0451 17.6544 18.8811 24.1723 10.1676
275.53 0.00025 5476.54 1691.51 1948.62 2063.52 1686.56 1473.99 1490.94 1348.55 1187.81 1099.12 1011.18 911.444 800.337 730.561 686.765 608.34 517.166 496.984 486.681 462.71 431.113 434.039 414.175 380.897 369.106 363.322 351.403 323.461 334.228 328.104 299.533 306.243 314.473 287.721 274.671 275.306 285.539 302.632 297.892 272.899 275.558 302.609 313.489 327.813 298.835 304.023 322.735 294.366 276.047 248.6 216.01 208.39 194.926 190.637 193.231 177.098 159.797 147.869 145.055 134.5 130.391 122.779 105.029 88.0946 78.7662 75.8634 69.7542 68.9906 63.7093 57.1576 53.1687 46.1835 39.5871 35.3553 30.2639 28.7076 28.7688 26.6138 25.9051 27.6171 24.7882 23.6376 22.78 23.9039 22.8867 21.6762 22.3041 22.047 21.5909 20.7047 17.9018 15.518 14.4053 13.0163 13.5762 16.0329 17.643 18.8706 24.1381 10.1538
275.5325 0.00025 5473.11 1696.39 1949.68 2058.4 1699.73 1468.1 1486.69 1347.76 1194.22 1104.86 1013.58 911.973 804.258 729.348 686.14 607.804 516.736 500 488.978 464.568 430.651 434.843 416.484 381.358 367.477 362.246 352.45 324.188 335.354 328.469 298.241 305.43 315.691 287.708 275.276 275.33 284.125 301.585 297.906 272.838 274.317 301.629 311.853 327.239 299.124 302.348 321.602 295.328 277.224 249.233 216.361 210.585 196.089 190.396 193.458 176.709 159.95 148.874 145.652 135.376 130.67 123.591 105.311 88.32 78.9491 76.0873 69.6072 69.1071 63.9079 57.5029 53.4308 46.3767 39.882 35.42 30.2917 28.736 28.7739 26.5762 25.8686 27.6167 24.7739 23.6033 22.7421 23.8113 22.8198 21.7469 22.3251 22.0718 21.6032 20.7727 17.9746 15.557 14.4171 13.006 13.5737 16.0205 17.6316 18.8605 24.104 10.1399
275.535 0.00025 5469.32 1702.45 1951.55 2052.8 1713.04 1464.7 1482.2 1345.26 1201.11 1110.56 1016.72 911.824 807.892 729.278 685.395 607.309 516.157 503.088 491.061 466.681 430.483 435.208 418.911 382.048 365.638 361.036 353.612 325.278 336.2 328.862 296.927 304.791 316.524 287.677 276.144 275.406 282.776 300.365 297.738 273.004 273.347 300.482 310.339 326.325 299.528 301.078 320.089 296.263 278.329 249.914 216.786 212.503 197.552 190.216 193.703 176.354 160 149.888 146.273 136.288 130.969 124.353 105.621 88.5518 79.1761 76.2839 69.494 69.195 64.0757 57.8686 53.6959 46.5613 40.1739 35.49 30.3222 28.7637 28.7793 26.5388 25.8323 27.6117 24.7629 23.5667 22.7082 23.7239 22.7482 21.8133 22.3508 22.0965 21.6134 20.836 18.0495 15.5979 14.4301 12.9961 13.5717 16.0079 17.62 18.8506 24.07 10.126
275.5375 0.00025 5465.19 1709.69 1954.33 2046.5 1726.51 1463.97 1477.02 1341.11 1208.6 1116.03 1020.48 911.306 811.017 730.381 684.633 606.792 515.481 506.258 492.956 468.932 430.736 435.148 421.376 382.985 363.619 359.665 354.928 326.659 336.786 329.234 295.688 304.314 316.9 287.716 277.247 275.506 281.507 298.986 297.399 273.363 272.701 299.125 308.98 325.102 299.96 300.238 318.258 297.126 279.367 250.613 217.365 214.13 199.214 190.18 193.918 176.095 159.931 150.889 146.927 137.229 131.302 125.066 105.945 88.7905 79.4439 76.4618 69.4121 69.2623 64.2067 58.25 53.9682 46.736 40.4626 35.565 30.3556 28.7908 28.7853 26.5019 25.7959 27.6019 24.7554 23.5275 22.6776 23.6419 22.6732 21.8747 22.381 22.1216 21.6216 20.8944 18.1262 15.641 14.4441 12.9866 13.5703 15.9952 17.6083 18.8411 24.0362 10.112
275.54 0.00025 5460.72 1717.93 1958.11 2039.37 1740.15 1465.84 1470.84 1335.54 1216.62 1121.24 1024.62 910.777 813.441 732.594 684.004 606.162 514.79 509.494 494.732 471.182 431.513 434.722 423.779 384.16 361.475 358.112 356.431 328.252 337.157 329.52 294.627 303.962 316.781 287.915 278.529 275.605 280.343 297.472 296.895 273.89 272.39 297.551 307.779 323.622 300.329 299.833 316.188 297.867 280.341 251.303 218.141 215.5 200.947 190.366 194.07 175.976 159.748 151.847 147.62 138.194 131.674 125.74 106.269 89.04 79.7425 76.6339 69.3577 69.3169 64.2978 58.64 54.2525 46.8988 40.7477 35.6452 30.3919 28.8172 28.7918 26.4657 25.7593 27.5873 24.7514 23.4859 22.6502 23.5652 22.5958 21.9301 22.4151 22.1475 21.6279 20.9478 18.2046 15.6863 14.4592 12.9776 13.5694 15.9823 17.5965 18.8319 24.0024 10.098
275.5425 0.00025 5456 1727.06 1962.88 2031.68 1753.91 1470 1463.54 1328.81 1224.88 1126.34 1028.84 910.612 815.022 735.786 683.695 605.337 514.193 512.761 496.494 473.284 432.882 434.031 426.004 385.543 359.28 356.369 358.131 329.981 337.354 329.659 293.834 303.689 316.164 288.348 279.92 275.685 279.312 295.835 296.242 274.561 272.394 295.79 306.702 321.975 300.551 299.835 313.967 298.438 281.255 251.972 219.113 216.687 202.616 190.831 194.149 176.014 159.479 152.722 148.353 139.185 132.086 126.386 106.58 89.3056 80.0563 76.8152 69.3265 69.3661 64.3483 59.0296 54.5538 47.0486 41.0288 35.7306 30.4313 28.8432 28.7986 26.4306 25.7224 27.5678 24.7511 23.4418 22.6253 23.4937 22.5174 21.9789 22.4527 22.1747 21.6325 20.996 18.2845 15.7339 14.4755 12.9691 13.569 15.9692 17.5846 18.823 23.9688 10.0839
275.545 0.00025 5451.19 1736.86 1968.5 2023.82 1767.53 1476.03 1455.16 1321.22 1232.96 1131.57 1032.81 911.194 815.72 739.762 683.891 604.242 513.818 515.995 498.375 475.106 434.867 433.204 427.938 387.077 357.12 354.44 360.025 331.785 337.403 329.616 293.361 303.452 315.091 289.057 281.337 275.73 278.452 294.076 295.475 275.339 272.676 293.903 305.682 320.263 300.555 300.187 311.699 298.796 282.113 252.621 220.25 217.789 204.097 191.599 194.175 176.195 159.175 153.475 149.124 140.205 132.535 127.016 106.871 89.593 80.3662 77.0208 69.3162 69.4149 64.3608 59.4092 54.8765 47.1847 41.3047 35.8215 30.4735 28.8686 28.8058 26.3968 25.685 27.5436 24.7542 23.3953 22.6025 23.4272 22.4391 22.0208 22.4933 22.2037 21.6357 21.0389 18.3656 15.784 14.4928 12.9612 13.5691 15.956 17.5726 18.8144 23.9352 10.0697
275.5475 0.00025 5446.44 1747.07 1974.71 2016.5 1780.6 1483.52 1446.01 1313.04 1240.39 1137.12 1036.23 912.891 815.585 744.304 684.734 602.849 513.786 519.126 500.506 476.541 437.448 432.38 429.476 388.697 355.077 352.343 362.088 333.624 337.312 329.385 293.222 303.223 313.644 290.045 282.701 275.724 277.806 292.18 294.657 276.173 273.191 291.982 304.635 318.594 300.3 300.8 309.495 298.903 282.921 253.252 221.502 218.898 205.303 192.658 194.188 176.487 158.906 154.057 149.928 141.255 133.017 127.643 107.136 89.9063 80.6528 77.2621 69.3288 69.4648 64.3411 59.769 55.2235 47.3079 41.574 35.9188 30.5185 28.8936 28.8132 26.3647 25.6471 27.5146 24.7608 23.3468 22.5814 23.3652 22.3618 22.055 22.536 22.2351 21.6376 21.0764 18.4476 15.8366 14.5112 12.954 13.5696 15.9427 17.5604 18.806 23.9018 10.0555
275.55 0.00025 5441.89 1757.55 1980.95 2010.51 1792.52 1492.19 1436.51 1304.55 1246.83 1143.11 1038.87 915.946 814.757 749.171 686.287 601.167 514.195 522.09 502.999 477.53 440.559 431.691 430.543 390.334 353.23 350.11 364.285 335.477 337.078 328.98 293.394 302.991 311.931 291.275 283.95 275.654 277.414 290.125 293.863 276.999 273.894 290.113 303.48 317.057 299.789 301.56 307.468 298.721 283.687 253.862 222.818 220.089 206.191 193.961 194.232 176.85 158.749 154.429 150.754 142.336 133.532 128.274 107.376 90.2471 80.9001 77.5437 69.3716 69.513 64.2977 60.0993 55.5956 47.4205 41.8343 36.0235 30.5662 28.9183 28.8208 26.3345 25.6085 27.4809 24.7705 23.2965 22.5614 23.3075 22.287 22.0816 22.5801 22.2692 21.6384 21.1085 18.5303 15.8919 14.5307 12.9475 13.5706 15.9293 17.5481 18.798 23.8686 10.0412
275.5525 0.00025 5437.67 1768.1 1986.57 2006.53 1802.65 1501.82 1427.16 1296.02 1252 1149.53 1040.67 920.409 813.499 754.111 688.519 599.254 515.106 524.843 505.92 478.068 444.104 431.25 431.097 391.912 351.644 347.787 366.573 337.331 336.69 328.427 293.825 302.769 310.064 292.682 285.038 275.513 277.307 287.901 293.164 277.754 274.744 288.376 302.151 315.708 299.06 302.339 305.721 298.222 284.424 254.447 224.152 221.397 206.773 195.436 194.348 177.25 158.771 154.565 151.588 143.444 134.078 128.914 107.596 90.6146 81.098 77.8612 69.458 69.5526 64.2419 60.3923 55.9912 47.5258 42.0829 36.1364 30.6165 28.9428 28.8284 26.3063 25.5691 27.4426 24.7832 23.2448 22.5423 23.2538 22.2155 22.1005 22.6247 22.3064 21.6384 21.135 18.6134 15.9499 14.5514 12.9417 13.5721 15.9158 17.5356 18.7902 23.8354 10.0268
275.555 0.00025 5434.02 1778.5 1990.85 2005.06 1810.48 1512.22 1418.5 1287.68 1255.74 1156.23 1041.7 926.074 812.162 758.886 691.3 597.211 516.538 527.373 509.278 478.203 447.958 431.136 431.131 393.361 350.372 345.433 368.904 339.183 336.147 327.746 294.457 302.579 308.148 294.185 285.938 275.302 277.493 285.525 292.598 278.395 275.698 286.826 300.621 314.575 298.179 303.024 304.334 297.395 285.141 255.002 225.475 222.815 207.11 196.99 194.558 177.678 159.011 154.466 152.402 144.576 134.656 129.565 107.805 91.0057 81.2446 78.1997 69.6067 69.5743 64.1854 60.6423 56.4069 47.6283 42.3171 36.2587 30.6694 28.9673 28.8361 26.2805 25.5289 27.3999 24.7984 23.1922 22.5234 23.2034 22.1484 22.1116 22.669 22.3471 21.6379 21.1561 18.6965 16.0108 14.5731 12.9368 13.574 15.9022 17.523 18.7827 23.8024 10.0124
275.5575 0.00025 5430.97 1788.62 1993.16 2006.23 1815.74 1523.18 1410.99 1279.71 1257.96 1162.95 1042.19 932.545 811.149 763.294 694.434 595.171 518.47 529.711 513.022 478.04 451.981 431.397 430.679 394.611 349.446 343.116 371.23 341.023 335.467 326.945 295.242 302.452 306.27 295.702 286.636 275.036 277.943 283.048 292.169 278.902 276.708 285.504 298.884 313.649 297.22 303.523 303.351 296.25 285.84 255.526 226.768 224.299 207.305 198.52 194.867 178.149 159.476 154.164 153.162 145.723 135.27 130.227 108.01 91.4148 81.3473 78.5358 69.8388 69.5695 64.1384 60.8464 56.8369 47.733 42.5345 36.3908 30.725 28.9918 28.8436 26.2572 25.4878 27.353 24.8158 23.1391 22.5045 23.1561 22.0867 22.1152 22.7121 22.3915 21.6373 21.1717 18.7794 16.0745 14.596 12.9328 13.5764 15.8886 17.5102 18.7754 23.7695 9.99782
275.56 0.00025 5428.6 1798.2 1993.21 2009.86 1818.49 1534.38 1405.06 1272.27 1258.69 1169.33 1042.46 939.319 810.87 767.188 697.683 593.291 520.86 531.921 517.053 477.726 456.027 432.042 429.801 395.598 348.885 340.912 373.502 342.842 334.681 326.014 296.146 302.414 304.496 297.163 287.123 274.747 278.594 280.555 291.834 279.288 277.727 284.43 296.946 312.91 296.248 303.781 302.77 294.835 286.504 256.032 228.016 225.78 207.484 199.929 195.261 178.696 160.143 153.716 153.827 146.878 135.924 130.896 108.225 91.8337 81.4206 78.8411 70.1739 69.5328 64.1075 61.0059 57.2738 47.8445 42.7332 36.5331 30.7837 29.0165 28.8509 26.2365 25.4459 27.302 24.8349 23.0862 22.4852 23.1112 22.0311 22.1116 22.753 22.4398 21.6368 21.182 18.8616 16.1413 14.62 12.9298 13.5791 15.8749 17.4973 18.7683 23.7367 9.9832
275.5625 0.00025 5426.94 1807.08 1990.79 2015.58 1819.05 1545.41 1400.97 1265.46 1257.99 1175.02 1042.89 945.889 811.686 770.499 700.806 591.72 523.654 534.1 521.226 477.431 459.952 433.054 428.584 396.265 348.683 338.899 375.674 344.626 333.829 324.933 297.153 302.49 302.87 298.514 287.398 274.475 279.351 278.158 291.524 279.586 278.711 283.603 294.833 312.335 295.306 303.778 302.554 293.227 287.097 256.549 229.2 227.18 207.773 201.138 195.71 179.355 160.97 153.198 154.358 148.027 136.617 131.572 108.459 92.2526 81.4845 79.0856 70.6259 69.4649 64.094 61.1259 57.71 47.9667 42.9125 36.6851 30.846 29.0416 28.858 26.2187 25.4029 27.2472 24.8551 23.034 22.4651 23.0681 21.9826 22.1014 22.7909 22.492 21.6368 21.1869 18.9428 16.2112 14.6451 12.9278 13.5822 15.8611 17.4842 18.7615 23.7041 9.9685
275.565 0.00025 5426.08 1814.97 1985.99 2022.61 1817.92 1555.9 1398.87 1259.37 1255.99 1179.63 1043.84 951.844 813.835 773.242 703.584 590.556 526.807 536.354 525.391 477.338 463.625 434.391 427.133 396.561 348.816 337.168 377.702 346.356 332.961 323.686 298.262 302.692 301.419 299.714 287.463 274.268 280.111 275.97 291.16 279.839 279.638 282.996 292.577 311.903 294.411 303.522 302.637 291.531 287.564 257.122 230.299 228.428 208.272 202.1 196.177 180.16 161.915 152.685 154.727 149.153 137.352 132.252 108.721 92.6629 81.5599 79.2438 71.1991 69.3742 64.0945 61.2144 58.138 48.1018 43.073 36.8457 30.9128 29.0671 28.8645 26.2037 25.3589 27.1888 24.8761 22.983 22.444 23.0263 21.9416 22.0851 22.825 22.548 21.6379 21.1867 19.0228 16.2841 14.6714 12.927 13.5857 15.8473 17.4709 18.755 23.6715 9.95371
275.5675 0.00025 5426 1821.7 1978.97 2030.11 1815.57 1565.5 1398.64 1254.05 1252.77 1182.93 1045.61 956.916 817.393 775.516 705.843 589.847 530.298 538.794 529.396 477.611 466.943 435.985 425.566 396.448 349.231 335.809 379.55 348.01 332.122 322.262 299.473 303.027 300.157 300.737 287.324 274.167 280.768 274.093 290.674 280.08 280.506 282.551 290.227 311.601 293.571 303.028 302.948 289.859 287.846 257.798 231.291 229.472 209.037 202.815 196.614 181.127 162.95 152.236 154.925 150.23 138.127 132.935 109.018 93.0574 81.6661 79.2988 71.8862 69.2767 64.1015 61.2806 58.5512 48.2505 43.2163 37.0133 30.9848 29.0934 28.8704 26.1916 25.314 27.1269 24.8971 22.9339 22.4215 22.9853 21.9086 22.0634 22.8544 22.6078 21.6404 21.1814 19.101 16.3601 14.6989 12.9274 13.5896 15.8334 17.4574 18.7486 23.6392 9.93884
275.57 0.00025 5426.58 1827.17 1970.08 2037.29 1812.52 1574.02 1400.01 1249.64 1248.45 1184.79 1048.34 960.987 822.262 777.504 707.48 589.57 534.118 541.513 533.123 478.383 469.845 437.753 424.011 395.904 349.85 334.916 381.186 349.556 331.354 320.671 300.783 303.496 299.085 301.565 287.003 274.202 281.24 272.606 290.016 280.329 281.338 282.185 287.837 311.411 292.782 302.312 303.419 288.316 287.89 258.611 232.159 230.282 210.071 203.327 196.97 182.255 164.064 151.887 154.966 151.225 138.943 133.622 109.354 93.4325 81.817 79.2451 72.6669 69.1947 64.1055 61.3334 58.9455 48.4115 43.3453 37.1857 31.063 29.1207 28.8757 26.1824 25.2682 27.0619 24.9178 22.8872 22.3975 22.9444 21.8841 22.0372 22.8784 22.6709 21.6448 21.1713 19.1773 16.4392 14.7276 12.9291 13.5938 15.8196 17.4438 18.7425 23.6069 9.92387
275.5725 0.00025 5427.83 1831.33 1959.71 2043.51 1809.18 1581.29 1402.49 1246.3 1243.12 1185.24 1052.01 964.074 828.154 779.425 708.476 589.634 538.265 544.586 536.497 479.746 472.305 439.593 422.588 394.934 350.57 334.576 382.589 350.961 330.683 318.955 302.165 304.102 298.197 302.191 286.531 274.388 281.465 271.547 289.159 280.592 282.17 281.801 285.474 311.316 292.039 301.379 304.001 286.985 287.668 259.572 232.898 230.86 211.326 203.721 197.187 183.531 165.265 151.647 154.887 152.103 139.799 134.31 109.734 93.786 82.0209 79.0892 73.5104 69.1547 64.0967 61.3802 59.3185 48.5822 43.4629 37.3609 31.1481 29.1493 28.8802 26.1763 25.2216 26.9938 24.9376 22.8434 22.3719 22.903 21.8681 22.0073 22.8964 22.737 21.6515 21.1565 19.2512 16.5214 14.7576 12.9321 13.5982 15.8057 17.4299 18.7366 23.5748 9.90883
275.575 0.00025 5429.59 1834.14 1948.26 2048.33 1805.99 1587.21 1405.49 1244.22 1237 1184.38 1056.45 966.287 834.663 781.499 708.892 589.906 542.711 548.067 539.478 481.742 474.34 441.394 421.399 393.569 351.276 334.864 383.746 352.192 330.112 317.186 303.573 304.852 297.478 302.611 285.949 274.722 281.413 270.928 288.094 280.871 283.036 281.31 283.197 311.302 291.336 300.241 304.646 285.922 287.19 260.653 233.524 231.226 212.706 204.107 197.222 184.931 166.568 151.509 154.741 152.831 140.694 134.996 110.16 94.118 82.2805 78.8478 74.3783 69.1834 64.0671 61.4258 59.6705 48.7593 43.5723 37.5372 31.2407 29.1797 28.8837 26.1729 25.1743 26.923 24.956 22.8031 22.3445 22.8608 21.8608 21.9747 22.9079 22.8055 21.6612 21.1373 19.3224 16.6067 14.7889 12.9365 13.603 15.7919 17.4159 18.7309 23.5429 9.89369
275.5775 0.00025 5431.72 1835.67 1936.06 2051.68 1803.37 1591.72 1408.46 1243.6 1230.33 1182.42 1061.37 967.811 841.296 783.916 708.865 590.262 547.389 551.989 542.076 484.372 475.998 443.053 420.522 391.868 351.846 335.825 384.655 353.219 329.63 315.463 304.944 305.75 296.917 302.822 285.309 275.188 281.081 270.727 286.827 281.169 283.944 280.655 281.05 311.357 290.655 298.914 305.302 285.169 286.495 261.798 234.066 231.418 214.088 204.591 197.047 186.422 167.991 151.457 154.583 153.382 141.626 135.672 110.636 94.4292 82.5948 78.5447 75.229 69.3049 64.0122 61.4726 60.0033 48.9398 43.6757 37.7132 31.3408 29.2125 28.8863 26.1724 25.1265 26.8495 24.9725 22.7665 22.3154 22.8171 21.8621 21.9405 22.9124 22.876 21.6742 21.1138 19.3907 16.6948 14.8215 12.9424 13.6081 15.7781 17.4017 18.7254 23.5111 9.87846
275.58 0.00025 5433.99 1836.08 1923.5 2053.89 1801.62 1594.91 1410.93 1244.6 1223.42 1179.55 1066.35 968.88 847.558 786.8 708.575 590.61 552.175 556.368 544.339 487.601 477.356 444.48 420.004 389.916 352.181 337.469 385.325 354.021 329.206 313.89 306.209 306.789 296.507 302.822 284.662 275.768 280.484 270.905 285.375 281.5 284.868 279.826 279.055 311.472 289.972 297.438 305.9 284.757 285.641 262.919 234.576 231.488 215.345 205.263 196.672 187.963 169.541 151.484 154.459 153.747 142.585 136.332 111.166 94.7214 82.9589 78.2089 76.0219 69.5376 63.9323 61.5202 60.319 49.1212 43.7745 37.8883 31.448 29.2483 28.8878 26.1745 25.0784 26.7735 24.9867 22.7342 22.2845 22.7717 21.8717 21.9057 22.9096 22.9476 21.691 21.0864 19.4557 16.7859 14.8555 12.9499 13.6135 15.7643 17.3873 18.7201 23.4794 9.86314
275.5825 0.00025 5436.25 1835.48 1911.04 2055.47 1800.96 1597.05 1412.62 1247.23 1216.5 1175.97 1070.96 969.753 853.011 790.224 708.198 590.942 556.885 561.197 546.353 491.368 478.502 445.607 419.859 387.818 352.2 339.759 385.775 354.588 328.807 312.567 307.304 307.948 296.254 302.607 284.058 276.439 279.646 271.407 283.763 281.884 285.753 278.87 277.211 311.633 289.259 295.873 306.351 284.714 284.695 263.923 235.108 231.485 216.367 206.164 196.143 189.501 171.216 151.592 154.396 153.938 143.556 136.966 111.754 94.9978 83.3646 77.8724 76.7204 69.8905 63.8336 61.5663 60.6199 49.3024 43.8689 38.0627 31.5616 29.2877 28.8883 26.179 25.0304 26.6951 24.9983 22.7063 22.2519 22.7241 21.8891 21.8716 22.8993 23.0197 21.7121 21.0554 19.5171 16.8796 14.891 12.959 13.619 15.7505 17.3727 18.7149 23.4479 9.84773
275.585 0.00025 5438.38 1834.19 1899.21 2057.12 1801.49 1598.6 1413.45 1251.28 1209.79 1171.92 1074.76 970.634 857.323 794.196 707.871 591.327 561.298 566.43 548.225 495.593 479.536 446.387 420.065 385.686 351.862 342.619 386.027 354.926 328.394 311.574 308.183 309.194 296.171 302.174 283.533 277.185 278.599 272.175 282.018 282.339 286.516 277.878 275.495 311.813 288.497 294.284 306.569 285.057 283.722 264.725 235.715 231.449 217.088 207.287 195.541 190.971 173.012 151.801 154.398 153.988 144.517 137.566 112.401 95.2646 83.8002 77.568 77.2957 70.3634 63.7274 61.6067 60.9081 49.4834 43.9581 38.2369 31.6806 29.3316 28.8878 26.1856 24.9826 26.6142 25.007 22.6832 22.2179 22.6742 21.9139 21.8393 22.8813 23.0914 21.7379 21.0212 19.5747 16.9759 14.9279 12.9698 13.6249 15.7368 17.3579 18.71 23.4165 9.83223
275.5875 0.00025 5440.1 1832.4 1888.5 2059.4 1803.2 1600.19 1413.53 1256.39 1203.41 1167.64 1077.47 971.57 860.349 798.666 707.669 591.911 565.189 571.962 550.085 500.198 480.545 446.8 420.577 383.634 351.165 345.934 386.105 355.049 327.932 310.963 308.816 310.48 296.276 301.531 283.114 277.993 277.373 273.147 280.173 282.873 287.069 276.967 273.879 311.967 287.691 292.725 306.489 285.777 282.789 265.25 236.441 231.407 217.494 208.567 194.971 192.306 174.924 152.136 154.446 153.946 145.443 138.125 113.109 95.5302 84.2517 77.3261 77.7287 70.9448 63.6305 61.6364 61.1846 49.6654 44.0414 38.4115 31.8038 29.3803 28.8864 26.194 24.9355 26.531 25.0125 22.6648 22.1824 22.6217 21.9453 21.8099 22.8557 23.1617 21.7686 20.9842 19.6283 17.0745 14.9665 12.9824 13.6309 15.7232 17.3429 18.7052 23.3852 9.81664
275.59 0.00025 5441.42 1830.27 1879.24 2062.73 1806.02 1602.37 1413.07 1262.1 1197.4 1163.34 1078.97 972.447 862.128 803.498 707.603 592.872 568.377 577.625 552.064 505.113 481.61 446.852 421.328 381.767 350.143 349.554 386.037 354.983 327.403 310.745 309.199 311.753 296.589 300.693 282.806 278.855 275.999 274.253 278.279 283.471 287.333 276.248 272.349 312.03 286.875 291.222 306.085 286.832 281.969 265.443 237.318 231.368 217.62 209.896 194.539 193.447 176.946 152.619 154.517 153.873 146.306 138.637 113.873 95.8059 84.7056 77.1722 78.0128 71.6125 63.5636 61.6507 61.4489 49.8505 44.1174 38.5871 31.9305 29.4343 28.8845 26.2038 24.8896 26.4454 25.0145 22.6513 22.1457 22.5665 21.9823 21.7845 22.8225 23.2299 21.8046 20.9448 19.6777 17.1754 15.0066 12.9968 13.6373 15.7096 17.3277 18.7005 23.3542 9.80096
275.5925 0.00025 5442.17 1827.97 1871.62 2067.36 1809.79 1605.44 1412.21 1267.94 1191.75 1159.14 1079.39 973.032 862.855 808.495 707.65 594.377 570.786 583.181 554.283 510.292 482.788 446.578 422.236 380.168 348.875 353.314 385.857 354.748 326.809 310.884 309.356 312.966 297.121 299.686 282.6 279.761 274.516 275.413 276.403 284.081 287.268 275.799 270.916 311.911 286.11 289.769 305.382 288.139 281.332 265.278 238.353 231.336 217.544 211.147 194.33 194.362 179.068 153.263 154.591 153.821 147.084 139.096 114.686 96.1042 85.1507 77.1223 78.1558 72.335 63.5489 61.6462 61.6988 50.0413 44.1855 38.7637 32.0598 29.4934 28.8823 26.2147 24.8451 26.3573 25.0131 22.6426 22.1081 22.5087 22.0241 21.7643 22.782 23.295 21.8459 20.9034 19.7227 17.2781 15.0485 13.0131 13.6438 15.6962 17.3123 18.6961 23.3232 9.78519