275.5025 0.00025 626.137 1635.67 2596.85 2204.02 2038.92 1908.99 1666.75 1549.37 1345.34 1175.18 1057.48 957.143 846.464 774.967 707.136 625.309 559.2 532.44 503.102 457.245 433.28 407.55 388.743 373.042 358.825 340.584 335.693 328.542 325.762 314.774 308.57 295.986 284.072 293.732 308.748 320.745 319.326 311.472 309.626 310.752 308.832 311.574 310.738 301.027 290.254 273.433 273.304 253.256 236.382 232.408 223.501 212.849 197.953 185.897 179.093 164.962 152.869 141.559 127.327 120.353 119.294 111.413 100.19 88.9836 81.2786 74.42 68.5953 65.3575 57.6775 50.589 45.8744 39.4961 34.0398 31.4099 28.891 26.889 25.4014 25.441 25.895 24.7576 24.4348 25.7868 25.1015 22.3087 21.0082 19.8769 17.1408 15.8901 14.3807 13.241 12.5939 12.3152 11.5516 10.8728 10.9521 10.5499 10.2886 10.0555 9.59329 9.10485
275.505 0.00025 625.963 1634.4 2596.6 2209.63 2038.14 1910.04 1674.86 1552.44 1350.28 1182.25 1060.93 958.727 848.518 777.03 705.826 624.651 559.05 531.797 503.827 457.799 432.891 408.645 388.562 373.146 359.015 340.562 335.444 328.104 324.595 313.67 308.454 296.806 283.429 292.98 307.72 320.134 319.988 310.324 308.253 310.812 308.708 311.326 310.504 299.088 291.086 273.503 272.635 254.865 237.62 232.26 223.465 213.24 199.089 186.918 179.5 164.827 152.474 141.53 127.341 120.385 119.466 111.94 100.675 89.1382 81.3427 74.652 68.7233 65.3157 57.9625 50.7075 45.936 39.6339 34.1047 31.486 28.9387 26.8716 25.3948 25.4288 25.8348 24.7028 24.3678 25.7255 25.1206 22.3669 21.0136 19.8835 17.2111 15.9333 14.4338 13.2654 12.5998 12.3112 11.5446 10.8621 10.9404 10.5349 10.2695 10.0378 9.57617 9.09467
275.5075 0.00025 625.749 1633.2 2596.3 2214.73 2037.7 1910.72 1683.01 1555.23 1354.64 1189.07 1064.44 960.133 851.015 779.194 704.536 623.983 559.097 531.046 504.45 458.337 432.539 409.756 388.421 373.199 359.255 340.502 335.167 327.784 323.336 312.604 308.414 297.59 282.869 292.419 306.778 319.338 320.573 309.256 307.058 310.754 308.636 311.062 310.355 297.067 291.658 273.817 271.825 256.308 238.978 232.27 223.431 213.586 200.221 187.97 179.9 164.726 152.1 141.425 127.368 120.431 119.595 112.393 101.198 89.3205 81.4054 74.8584 68.8734 65.2692 58.2398 50.8521 45.9796 39.7737 34.1705 31.563 28.9898 26.8539 25.3879 25.4184 25.7745 24.6498 24.3013 25.6606 25.1362 22.4259 21.0228 19.8871 17.2812 15.9755 14.4875 13.2914 12.6059 12.3073 11.5376 10.8516 10.9287 10.5201 10.2503 10.0202 9.55918 9.08458
275.51 0.00025 625.526 1632.13 2595.9 2219.21 2037.59 1911.09 1690.8 1557.68 1358.41 1195.54 1068.05 961.465 853.786 781.447 703.426 623.21 559.344 530.21 504.935 458.877 432.256 410.824 388.345 373.206 359.549 340.403 334.845 327.587 321.997 311.593 308.441 298.329 282.392 292.061 305.907 318.405 321.02 308.246 306.105 310.54 308.605 310.768 310.291 295.076 291.864 274.387 270.939 257.547 240.416 232.478 223.419 213.895 201.334 189.046 180.3 164.646 151.771 141.248 127.394 120.494 119.686 112.767 101.751 89.5323 81.4696 75.0415 69.0393 65.221 58.5045 51.0252 46.0082 39.9128 34.2376 31.6405 29.0444 26.836 25.3806 25.4095 25.7144 24.5986 24.2356 25.5923 25.148 22.4852 21.0357 19.8881 17.3508 16.0169 14.5416 13.319 12.6122 12.3035 11.5304 10.8413 10.9173 10.5053 10.2311 10.0028 9.5423 9.07457
275.5125 0.00025 625.293 1631.33 2595.48 2223.03 2037.76 1911.28 1697.84 1559.67 1361.65 1201.58 1071.78 962.854 856.653 783.782 702.617 622.274 559.766 529.324 505.248 459.43 432.071 411.808 388.351 373.173 359.892 340.271 334.46 327.498 320.596 310.651 308.517 299.019 282.002 291.898 305.102 317.385 321.265 307.297 305.424 310.148 308.594 310.429 310.305 293.226 291.635 275.194 270.048 258.551 241.888 232.914 223.454 214.184 202.413 190.139 180.712 164.577 151.5 141.015 127.404 120.578 119.741 113.059 102.323 89.7762 81.5364 75.2051 69.2153 65.1732 58.7527 51.2268 46.026 40.0486 34.3064 31.7183 29.1026 26.8181 25.3727 25.402 25.6546 24.549 24.1708 25.5209 25.1559 22.5447 21.0527 19.8867 17.4199 16.0574 14.5958 13.3482 12.6188 12.2998 11.5233 10.8311 10.9059 10.4907 10.2118 9.98549 9.52555 9.06464
275.515 0.00025 625.037 1630.88 2595.08 2226.26 2038.12 1911.38 1703.85 1561 1364.46 1207.2 1075.63 964.458 859.412 786.207 702.21 621.172 560.318 528.436 505.359 459.999 432.005 412.684 388.438 373.114 360.274 340.122 334.003 327.49 319.16 309.792 308.624 299.662 281.697 291.901 304.37 316.314 321.256 306.43 305.008 309.588 308.58 310.035 310.381 291.61 290.949 276.184 269.227 259.297 243.341 233.596 223.565 214.475 203.445 191.237 181.144 164.517 151.287 140.751 127.386 120.679 119.766 113.271 102.902 90.0552 81.6054 75.3538 69.3971 65.1275 58.9812 51.4548 46.0384 40.1784 34.3775 31.7962 29.1644 26.8005 25.364 25.3957 25.5952 24.5009 24.107 25.447 25.1596 22.604 21.0736 19.8834 17.4882 16.0971 14.65 13.3792 12.6258 12.296 11.5161 10.8212 10.8946 10.4762 10.1925 9.96835 9.50892 9.0548
275.5175 0.00025 624.753 1630.8 2594.68 2228.87 2038.49 1911.47 1708.52 1561.53 1366.96 1212.41 1079.61 966.413 861.9 788.674 702.268 619.955 560.935 527.597 505.244 460.575 432.068 413.445 388.593 373.044 360.679 339.976 333.464 327.517 317.725 309.024 308.746 300.261 281.476 292.027 303.733 315.207 320.963 305.675 304.822 308.89 308.537 309.586 310.491 290.296 289.83 277.277 268.542 259.775 244.721 234.524 223.786 214.793 204.42 192.327 181.604 164.472 151.119 140.483 127.331 120.794 119.761 113.408 103.474 90.3715 81.6766 75.4916 69.5817 65.0847 59.1886 51.705 46.0517 40.2997 34.451 31.8739 29.2299 26.7834 25.3544 25.3906 25.5364 24.4543 24.0444 25.3708 25.1589 22.6628 21.0984 19.8786 17.5555 16.1361 14.704 13.4119 12.6331 12.2924 11.509 10.8115 10.8835 10.4618 10.1731 9.95136 9.49241 9.04505
275.52 0.00025 624.449 1631.06 2594.29 2230.84 2038.76 1911.48 1711.66 1561.19 1369.23 1217.26 1083.68 968.806 864.006 791.109 702.803 618.72 561.549 526.852 504.892 461.145 432.269 414.104 388.791 372.985 361.098 339.864 332.839 327.529 316.335 308.351 308.875 300.818 281.327 292.224 303.224 314.067 320.374 305.057 304.804 308.103 308.441 309.089 310.601 289.323 288.348 278.368 268.053 259.99 245.977 235.679 224.147 215.164 205.335 193.392 182.092 164.462 150.974 140.235 127.239 120.913 119.729 113.477 104.024 90.7266 81.7506 75.6212 69.7682 65.0452 59.3745 51.9714 46.0723 40.4104 34.527 31.9515 29.2987 26.7672 25.3438 25.3864 25.4784 24.409 23.9832 25.2928 25.1539 22.7209 21.127 19.8725 17.6216 16.1745 14.7577 13.4463 12.6408 12.2887 11.5018 10.8019 10.8725 10.4476 10.1537 9.93454 9.47602 9.03539
275.5225 0.00025 624.083 1631.74 2594.03 2232.15 2038.73 1911.2 1713.19 1560.08 1371.34 1221.83 1087.8 971.66 865.684 793.422 703.805 617.574 562.095 526.239 504.303 461.683 432.609 414.687 388.996 372.951 361.522 339.81 332.126 327.476 315.03 307.776 309.013 301.32 281.235 292.442 302.871 312.879 319.499 304.589 304.875 307.293 308.277 308.556 310.67 288.701 286.611 279.352 267.802 259.966 247.06 237.025 224.678 215.614 206.195 194.418 182.6 164.511 150.832 140.023 127.12 121.025 119.674 113.487 104.537 91.1193 81.8294 75.7437 69.957 65.009 59.5402 52.2465 46.1059 40.5096 34.6053 32.0287 29.3708 26.7521 25.3321 25.3829 25.4213 24.3648 23.9232 25.2133 25.1444 22.778 21.1593 19.8657 17.6865 16.2121 14.8109 13.4825 12.649 12.285 11.4946 10.7926 10.8616 10.4334 10.1343 9.91787 9.45976 9.02583
275.525 0.00025 623.687 1632.74 2594.04 2232.71 2038.29 1910.34 1713.1 1558.4 1373.24 1226.22 1091.92 974.954 866.991 795.496 705.226 616.625 562.53 525.781 503.493 462.166 433.087 415.221 389.179 372.945 361.957 339.835 331.323 327.314 313.842 307.302 309.171 301.753 281.178 292.639 302.694 311.636 318.369 304.266 304.96 306.52 308.033 308.01 310.65 288.406 284.745 280.135 267.808 259.744 247.933 238.504 225.407 216.163 207.016 195.387 183.114 164.647 150.676 139.852 126.986 121.119 119.595 113.449 105.001 91.5459 81.9171 75.8582 70.1493 64.9763 59.6882 52.523 46.1571 40.5971 34.6854 32.1054 29.4459 26.7387 25.3191 25.3801 25.3653 24.3218 23.8647 25.1329 25.1304 22.8339 21.195 19.8585 17.7499 16.2492 14.8635 13.5205 12.6578 12.2813 11.4875 10.7834 10.8509 10.4194 10.1149 9.90137 9.44361 9.01636
275.5275 0.00025 623.295 1633.96 2594.32 2232.49 2037.3 1908.65 1711.55 1556.33 1374.82 1230.52 1095.99 978.624 868.084 797.259 706.996 615.945 562.843 525.484 502.49 462.566 433.699 415.732 389.319 372.955 362.417 339.952 330.431 327.016 312.79 306.94 309.372 302.092 281.136 292.786 302.694 310.335 317.021 304.059 304.991 305.828 307.715 307.48 310.502 288.39 282.877 280.645 268.062 259.381 248.572 240.05 226.346 216.828 207.82 196.287 183.62 164.894 150.501 139.718 126.856 121.19 119.491 113.372 105.405 91.9994 82.0191 75.9632 70.3463 64.9476 59.8217 52.7937 46.2284 40.674 34.7667 32.1818 29.5236 26.7271 25.3049 25.3777 25.3105 24.2797 23.8076 25.0519 25.1118 22.8882 21.2338 19.8514 17.8117 16.2856 14.9152 13.5601 12.6671 12.2776 11.4804 10.7743 10.8402 10.4055 10.0955 9.88503 9.42759 9.007
275.53 0.00025 622.877 1635.33 2595.06 2231.59 2035.72 1906.02 1708.74 1554.01 1375.96 1234.83 1099.97 982.598 869.155 798.679 709.032 615.575 563.051 525.34 501.325 462.865 434.436 416.242 389.418 372.962 362.919 340.168 329.451 326.572 311.878 306.707 309.634 302.312 281.084 292.87 302.849 308.989 315.492 303.935 304.919 305.245 307.328 306.999 310.187 288.587 281.128 280.844 268.533 258.943 248.966 241.59 227.498 217.621 208.637 197.103 184.107 165.258 150.317 139.606 126.746 121.234 119.363 113.266 105.744 92.4687 82.1421 76.0577 70.5483 64.9234 59.9445 53.0528 46.3205 40.7424 34.8484 32.2575 29.6037 26.7178 25.2892 25.3756 25.2572 24.2385 23.7519 24.9706 25.0888 22.9408 21.2754 19.8447 17.8719 16.3214 14.9661 13.6014 12.6771 12.2739 11.4733 10.7655 10.8297 10.3917 10.0762 9.86886 9.41169 8.99774
275.5325 0.00025 622.433 1636.73 2596.37 2230.24 2033.6 1902.5 1704.97 1551.47 1376.46 1239.18 1103.85 986.79 870.405 799.772 711.236 615.528 563.204 525.317 500.043 463.054 435.281 416.752 389.488 372.942 363.476 340.483 328.384 325.994 311.086 306.628 309.975 302.393 281.003 292.892 303.117 307.629 313.816 303.855 304.718 304.772 306.886 306.61 309.673 288.925 279.592 280.722 269.164 258.5 249.116 243.056 228.849 218.547 209.497 197.829 184.57 165.735 150.144 139.499 126.667 121.252 119.208 113.138 106.016 92.939 82.2933 76.1414 70.7549 64.9056 60.0599 53.2966 46.4318 40.805 34.9296 32.3327 29.6856 26.7112 25.2722 25.3734 25.2055 24.1982 23.6976 24.8896 25.0613 22.9915 21.3195 19.839 17.9304 16.3567 15.0159 13.6443 12.6878 12.2701 11.4663 10.7568 10.8192 10.378 10.0568 9.85287 9.39591 8.98859
275.535 0.00025 621.95 1638.04 2598.34 2228.74 2031.07 1898.23 1700.51 1548.72 1376.19 1243.56 1107.69 991.104 872.049 800.597 713.52 615.813 563.36 525.377 498.682 463.132 436.218 417.259 389.556 372.886 364.082 340.894 327.233 325.304 310.391 306.724 310.4 302.322 280.876 292.861 303.439 306.294 312.024 303.781 304.382 304.393 306.407 306.353 308.936 289.326 278.337 280.302 269.887 258.112 249.041 244.393 230.366 219.605 210.429 198.466 185.011 166.301 150.009 139.385 126.626 121.249 119.028 112.992 106.227 93.3937 82.4789 76.2161 70.9638 64.8959 60.1712 53.5238 46.5591 40.8649 35.0096 32.4073 29.7689 26.7077 25.2538 25.3711 25.1554 24.1586 23.6446 24.809 25.0297 23.0401 21.3657 19.8344 17.987 16.3913 15.0646 13.6888 12.6994 12.2663 11.4594 10.7483 10.8089 10.3644 10.0375 9.83705 9.38025 8.97955
275.5375 0.00025 621.401 1639.23 2600.87 2227.53 2028.33 1893.34 1695.65 1545.72 1375.08 1247.84 1111.53 995.426 874.256 801.211 715.774 616.442 563.568 525.485 497.279 463.122 437.218 417.752 389.647 372.802 364.72 341.394 326.008 324.531 309.765 307.01 310.911 302.09 280.695 292.793 303.755 305.034 310.142 303.676 303.92 304.076 305.906 306.266 307.976 289.717 277.396 279.636 270.63 257.826 248.772 245.557 232.002 220.788 211.454 199.027 185.433 166.925 149.937 139.255 126.626 121.231 118.826 112.831 106.385 93.8148 82.7024 76.2855 71.1712 64.8964 60.2806 53.7349 46.6978 40.925 35.088 32.4811 29.8532 26.7075 25.2342 25.3683 25.1072 24.1198 23.5931 24.7292 24.9939 23.0865 21.4135 19.8315 18.0419 16.4254 15.1121 13.7348 12.7117 12.2625 11.4526 10.7399 10.7987 10.3509 10.0183 9.82141 9.36471 8.97064
275.54 0.00025 620.782 1640.24 2603.76 2227 2025.63 1887.88 1690.64 1542.45 1373.19 1251.8 1115.41 999.619 877.182 801.688 717.881 617.437 563.863 525.613 495.862 463.047 438.249 418.218 389.786 372.719 365.351 341.98 324.726 323.702 309.194 307.489 311.499 301.699 280.458 292.697 304.011 303.889 308.208 303.507 303.349 303.786 305.4 306.365 306.802 290.026 276.78 278.793 271.323 257.666 248.354 246.522 233.699 222.083 212.584 199.535 185.846 167.573 149.947 139.11 126.665 121.202 118.609 112.654 106.501 94.1859 82.9646 76.3553 71.3739 64.9085 60.3901 53.9325 46.8432 40.9876 35.1647 32.554 29.938 26.7111 25.2133 25.3651 25.0609 24.0817 23.5428 24.6504 24.9542 23.1307 21.4626 19.8306 18.095 16.4588 15.1584 13.7821 12.7251 12.2586 11.4459 10.7318 10.7885 10.3375 9.99909 9.80595 9.34929 8.96185
275.5425 0.00025 620.112 1641 2606.98 2227.53 2023.26 1881.76 1685.71 1538.87 1370.68 1255.2 1119.37 1003.53 880.908 802.11 719.758 618.821 564.256 525.75 494.452 462.939 439.276 418.65 389.99 372.677 365.932 342.642 323.415 322.831 308.675 308.15 312.154 301.156 280.174 292.576 304.166 302.886 306.252 303.252 302.683 303.487 304.906 306.647 305.458 290.188 276.468 277.857 271.909 257.642 247.843 247.279 235.396 223.472 213.819 200.024 186.254 168.216 150.047 138.957 126.739 121.168 118.387 112.459 106.584 94.4939 83.2625 76.4325 71.5684 64.9329 60.5007 54.1205 46.9907 41.0542 35.24 32.6257 30.0229 26.7186 25.1913 25.361 25.0165 24.0442 23.4938 24.5729 24.9108 23.1724 21.5125 19.8319 18.1463 16.4916 15.2032 13.8307 12.7394 12.2546 11.4393 10.7238 10.7785 10.3243 9.98 9.79067 9.33398 8.95319
275.545 0.00025 619.408 1641.63 2610.32 2229.38 2021.55 1874.69 1681.05 1535.01 1367.72 1257.8 1123.39 1007.04 885.456 802.579 721.309 620.616 564.733 525.906 493.061 462.833 440.261 419.042 390.271 372.721 366.422 343.367 322.114 321.923 308.223 308.97 312.858 300.473 279.853 292.421 304.199 302.037 304.305 302.902 301.937 303.157 304.435 307.074 304.014 290.155 276.419 276.916 272.348 257.742 247.299 247.834 237.033 224.932 215.145 200.53 186.665 168.831 150.23 138.813 126.838 121.133 118.169 112.248 106.643 94.7305 83.5893 76.5252 71.752 64.9696 60.6127 54.3037 47.1365 41.125 35.3146 32.696 30.1073 26.7304 25.1684 25.3561 24.9743 24.0076 23.4459 24.4967 24.864 23.2117 21.5628 19.8356 18.196 16.5239 15.2467 13.8804 12.7547 12.2506 11.4328 10.7159 10.7686 10.3111 9.96099 9.77558 9.31879 8.94467
275.5475 0.00025 618.649 1642.36 2613.75 2232.59 2020.82 1866.46 1676.75 1530.86 1364.51 1259.46 1127.38 1010.07 890.772 803.22 722.512 622.83 565.266 526.096 491.706 462.764 441.174 419.394 390.64 372.883 366.787 344.138 320.87 320.97 307.861 309.915 313.589 299.666 279.511 292.218 304.113 301.331 302.391 302.463 301.124 302.787 304.001 307.587 302.558 289.9 276.558 276.05 272.619 257.938 246.783 248.204 238.56 226.438 216.533 201.093 187.089 169.404 150.478 138.703 126.954 121.102 117.963 112.022 106.681 94.8918 83.9342 76.6422 71.9231 65.0188 60.7253 54.4867 47.278 41.1998 35.3894 32.7646 30.191 26.7464 25.1448 25.3499 24.9341 23.9716 23.3994 24.422 24.8139 23.2485 21.6129 19.842 18.244 16.5554 15.2888 13.9311 12.7712 12.2466 11.4264 10.7083 10.7587 10.298 9.94209 9.76067 9.30371 8.93628
275.55 0.00025 617.865 1643.28 2617.31 2237.03 2021.5 1856.91 1672.68 1526.45 1361.24 1260.14 1131.16 1012.57 896.74 804.187 723.374 625.451 565.828 526.338 490.412 462.755 441.984 419.716 391.103 373.181 367.006 344.935 319.734 319.964 307.62 310.95 314.316 298.76 279.17 291.948 303.92 300.744 300.53 301.95 300.248 302.381 303.614 308.108 301.183 289.432 276.791 275.32 272.725 258.195 246.347 248.418 239.941 227.967 217.944 201.747 187.538 169.925 150.76 138.654 127.074 121.084 117.777 111.785 106.702 94.9787 84.2841 76.7921 72.081 65.0802 60.8369 54.6738 47.4143 41.277 35.465 32.8313 30.2734 26.7669 25.1208 25.3425 24.8961 23.9365 23.354 24.3487 24.7608 23.2827 21.6627 19.8512 18.2906 16.5864 15.3294 13.9827 12.7889 12.2425 11.4202 10.7008 10.7489 10.285 9.92331 9.74594 9.28874 8.92805
275.5525 0.00025 617.101 1644.54 2620.99 2242.4 2023.8 1846.09 1668.69 1521.77 1358.02 1259.94 1134.6 1014.56 903.178 805.625 723.947 628.449 566.402 526.636 489.208 462.827 442.668 420.022 391.667 373.617 367.065 345.737 318.753 318.903 307.52 312.038 315.001 297.783 278.848 291.595 303.638 300.237 298.744 301.38 299.318 301.949 303.286 308.541 299.971 288.793 277.009 274.754 272.689 258.473 246.036 248.506 241.152 229.496 219.335 202.523 188.033 170.39 151.046 138.69 127.19 121.085 117.611 111.544 106.704 94.997 84.6228 76.9825 72.2262 65.1542 60.9455 54.8681 47.5462 41.355 35.542 32.8961 30.3541 26.7918 25.0967 25.3335 24.8602 23.9023 23.3099 24.2768 24.705 23.3144 21.712 19.8632 18.3358 16.6166 15.3685 14.0349 12.8078 12.2384 11.414 10.6935 10.7392 10.2721 9.90466 9.73139 9.27389 8.91996
275.555 0.00025 616.4 1646.34 2624.88 2248.29 2027.81 1834.29 1664.51 1516.8 1354.96 1259.06 1137.51 1016.11 909.854 807.654 724.343 631.77 567.001 526.989 488.129 462.987 443.216 420.329 392.333 374.176 366.964 346.522 317.966 317.798 307.576 313.15 315.605 296.77 278.561 291.153 303.283 299.771 297.054 300.766 298.345 301.507 303.028 308.795 298.984 288.06 277.114 274.341 272.556 258.733 245.885 248.498 242.185 231.004 220.654 203.441 188.594 170.798 151.308 138.825 127.298 121.111 117.468 111.308 106.684 94.957 84.9328 77.2196 72.3607 65.241 61.0487 55.0715 47.6758 41.4319 35.6205 32.959 30.4328 26.821 25.0729 25.3229 24.8264 23.8689 23.2669 24.2063 24.6466 23.3436 21.7604 19.8781 18.3797 16.6463 15.4062 14.0877 12.828 12.2343 11.4081 10.6864 10.7296 10.2593 9.88614 9.71704 9.25915 8.91203
275.5575 0.00025 615.792 1648.79 2629.19 2254.27 2033.47 1822.12 1659.94 1511.47 1352.06 1257.7 1139.79 1017.31 916.523 810.365 724.697 635.339 567.669 527.385 487.216 463.23 443.629 420.656 393.099 374.833 366.707 347.269 317.401 316.68 307.78 314.258 316.089 295.753 278.327 290.628 302.866 299.303 295.477 300.114 297.349 301.073 302.848 308.794 298.246 287.329 277.036 274.028 272.379 258.947 245.913 248.422 243.046 232.48 221.848 204.513 189.245 171.147 151.529 139.059 127.403 121.165 117.349 111.086 106.636 94.8724 85.1967 77.5062 72.489 65.3408 61.145 55.2839 47.8064 41.5062 35.7002 33.0204 30.509 26.8546 25.0498 25.3105 24.7947 23.8366 23.2254 24.137 24.5861 23.3704 21.8077 19.8959 18.4226 16.6753 15.4425 14.1408 12.8496 12.2301 11.4023 10.6795 10.7201 10.2466 9.86779 9.70287 9.24451 8.90426
275.56 0.00025 615.28 1652.1 2633.98 2260.08 2040.48 1810.37 1654.81 1505.73 1349.33 1256.07 1141.41 1018.28 922.917 813.785 725.182 639.069 568.467 527.816 486.504 463.538 443.924 421.017 393.957 375.553 366.31 347.953 317.075 315.596 308.109 315.331 316.425 294.765 278.153 290.038 302.393 298.797 294.023 299.42 296.355 300.657 302.743 308.488 297.746 286.691 276.75 273.737 272.21 259.102 246.127 248.302 243.749 233.915 222.873 205.74 190.008 171.443 151.698 139.379 127.514 121.247 117.256 110.886 106.558 94.7588 85.3987 77.8403 72.6175 65.4531 61.2336 55.5035 47.9418 41.577 35.7799 33.0807 30.5824 26.8921 25.0278 25.2962 24.765 23.8054 23.1852 24.0688 24.5235 23.3948 21.8539 19.9164 18.4646 16.7037 15.4773 14.194 12.8726 12.226 11.3967 10.6727 10.7106 10.234 9.84959 9.68888 9.22999 8.89667
275.5625 0.00025 614.921 1656.28 2639.57 2265.5 2048.46 1799.76 1649.11 1499.48 1346.74 1254.25 1142.44 1019.13 928.786 817.896 725.973 642.874 569.466 528.277 486.019 463.885 444.128 421.417 394.9 376.3 365.791 348.547 316.994 314.603 308.53 316.335 316.596 293.827 278.053 289.405 301.867 298.225 292.699 298.679 295.389 300.267 302.698 307.863 297.448 286.216 276.28 273.376 272.078 259.202 246.521 248.154 244.312 235.305 223.702 207.11 190.899 171.7 151.815 139.762 127.646 121.353 117.196 110.713 106.446 94.6322 85.5272 78.2143 72.7549 65.5778 61.3146 55.728 48.0852 41.6452 35.8581 33.1403 30.6528 26.9334 25.0074 25.2798 24.7373 23.7753 23.1464 24.0014 24.4593 23.417 21.8989 19.9397 18.5058 16.7315 15.5108 14.2473 12.897 12.2219 11.3912 10.6662 10.7012 10.2215 9.83157 9.67508 9.21557 8.88924
275.565 0.00025 614.726 1661.53 2646.04 2270.46 2057.04 1790.85 1642.93 1492.71 1344.33 1252.22 1143.03 1019.97 933.905 822.619 727.21 646.688 570.718 528.774 485.777 464.236 444.278 421.853 395.92 377.04 365.178 349.019 317.157 313.764 309.005 317.229 316.604 292.952 278.032 288.747 301.297 297.565 291.502 297.883 294.478 299.906 302.683 306.945 297.297 285.936 275.702 272.867 271.988 259.276 247.073 247.995 244.753 236.642 224.327 208.59 191.929 171.937 151.889 140.179 127.809 121.481 117.174 110.57 106.3 94.5048 85.5772 78.6145 72.9116 65.7148 61.3887 55.9541 48.2391 41.7124 35.9328 33.1994 30.7198 26.9781 24.9889 25.2614 24.7114 23.7465 23.1093 23.9347 24.3935 23.437 21.9425 19.9654 18.5465 16.7588 15.5428 14.3003 12.923 12.2178 11.3859 10.6599 10.6918 10.2091 9.81374 9.66145 9.20125 8.88199
275.5675 0.00025 614.7 1667.91 2653.38 2274.93 2065.78 1783.91 1636.43 1485.44 1342.17 1249.87 1143.36 1020.84 938.13 827.796 728.973 650.469 572.261 529.326 485.784 464.561 444.409 422.323 397.005 377.746 364.5 349.333 317.557 313.135 309.491 317.981 316.464 292.141 278.103 288.078 300.688 296.808 290.427 297.029 293.64 299.574 302.655 305.796 297.23 285.848 275.11 272.16 271.908 259.364 247.747 247.843 245.082 237.916 224.77 210.127 193.108 172.179 151.928 140.602 128.011 121.628 117.199 110.456 106.127 94.3849 85.5518 79.0209 73.098 65.8652 61.4571 56.1788 48.4041 41.7818 36.002 33.2581 30.7833 27.0258 24.9729 25.2408 24.6872 23.719 23.0739 23.8684 24.3263 23.4548 21.9849 19.9936 18.5867 16.7857 15.5735 14.3529 12.9504 12.2138 11.3808 10.6538 10.6826 10.1967 9.79611 9.648 9.18705 8.87493
275.57 0.00025 614.871 1675.33 2661.82 2279.01 2074.41 1778.96 1629.96 1477.83 1340.28 1247.1 1143.56 1021.81 941.434 833.235 731.267 654.206 574.106 529.963 486.032 464.837 444.551 422.822 398.139 378.401 363.793 349.452 318.181 312.762 309.954 318.56 316.202 291.39 278.276 287.41 300.047 295.949 289.467 296.114 292.883 299.27 302.563 304.5 297.19 285.92 274.599 271.247 271.781 259.518 248.506 247.718 245.304 239.11 225.085 211.651 194.442 172.455 151.948 141.01 128.251 121.796 117.276 110.371 105.935 94.2745 85.4616 79.4092 73.3235 66.0313 61.5211 56.3992 48.5801 41.8571 36.0642 33.3163 30.8433 27.0762 24.9597 25.218 24.6647 23.6929 23.0403 23.8024 24.258 23.4706 22.0259 20.024 18.6266 16.8123 15.603 14.405 12.9793 12.2099 11.3758 10.6479 10.6733 10.1845 9.77868 9.63473 9.17295 8.86807
275.5725 0.00025 615.257 1683.62 2671.31 2282.87 2082.65 1775.81 1623.75 1470.07 1338.6 1243.86 1143.73 1022.94 943.902 838.709 734.038 657.904 576.242 530.723 486.506 465.059 444.729 423.346 399.302 379.001 363.09 349.342 319.011 312.677 310.362 318.939 315.848 290.697 278.556 286.753 299.379 294.989 288.616 295.14 292.211 298.991 302.364 303.146 297.129 286.101 274.24 270.162 271.542 259.778 249.306 247.647 245.42 240.197 225.342 213.088 195.927 172.794 151.967 141.385 128.52 121.988 117.406 110.313 105.735 94.1718 85.3208 79.7554 73.5942 66.2165 61.5824 56.6128 48.766 41.9416 36.1186 33.373 30.8999 27.1288 24.9498 25.1932 24.6436 23.6683 23.0087 23.7364 24.1886 23.4843 22.0657 20.0564 18.6662 16.8386 15.6311 14.4563 13.0097 12.2062 11.3711 10.6422 10.6641 10.1723 9.76147 9.62163 9.15896 8.8614
275.575 0.00025 615.85 1692.54 2681.59 2286.78 2090.14 1774.23 1618.07 1462.4 1336.99 1240.22 1143.91 1024.26 945.711 844.011 737.179 661.578 578.642 531.638 487.182 465.23 444.955 423.889 400.467 379.55 362.425 348.978 320.021 312.89 310.697 319.102 315.435 290.072 278.94 286.119 298.685 293.938 287.87 294.109 291.624 298.724 302.041 301.813 297.015 286.338 274.069 268.976 271.131 260.169 250.107 247.659 245.43 241.144 225.625 214.37 197.547 173.222 152.007 141.72 128.805 122.212 117.588 110.284 105.538 94.0741 85.1447 80.039 73.9105 66.425 61.6436 56.8171 48.9604 42.0378 36.1656 33.4271 30.9532 27.1831 24.9435 25.1664 24.6238 23.6452 22.9793 23.6704 24.1183 23.496 22.1042 20.0906 18.7057 16.8648 15.658 14.5067 13.0416 12.2025 11.3665 10.6368 10.655 10.1602 9.74449 9.6087 9.14508 8.85494
275.5775 0.00025 616.627 1701.83 2692.44 2290.87 2096.6 1774.04 1613.11 1454.96 1335.28 1236.23 1144.11 1025.82 947.081 848.991 740.578 665.227 581.265 532.738 488.039 465.363 445.235 424.438 401.605 380.064 361.823 348.352 321.182 313.394 310.958 319.041 314.993 289.536 279.412 285.526 297.963 292.802 287.224 293.021 291.121 298.452 301.6 300.547 296.829 286.585 274.083 267.774 270.52 260.688 250.884 247.773 245.34 241.909 226.01 215.453 199.266 173.761 152.093 142.012 129.089 122.472 117.816 110.29 105.352 93.9808 84.9449 80.2473 74.2669 66.6616 61.7081 57.0101 49.1624 42.1468 36.2073 33.4767 31.0036 27.2386 24.9412 25.1378 24.6051 23.6237 22.9521 23.604 24.0472 23.5057 22.1418 20.1266 18.7452 16.8909 15.6837 14.5561 13.075 12.1991 11.3621 10.6316 10.6459 10.1482 9.72775 9.59593 9.13131 8.84868
275.58 0.00025 617.542 1711.27 2703.51 2295.22 2101.75 1774.98 1609.11 1447.81 1333.32 1232.02 1144.32 1027.64 948.243 853.546 744.134 668.816 584.072 534.046 489.057 465.48 445.573 424.977 402.688 380.565 361.307 347.476 322.456 314.155 311.158 318.762 314.539 289.115 279.939 284.997 297.205 291.594 286.677 291.881 290.697 298.15 301.08 299.368 296.56 286.809 274.245 266.639 269.719 261.297 251.622 248.005 245.168 242.446 226.555 216.33 201.025 174.435 152.25 142.267 129.357 122.772 118.083 110.338 105.185 93.8931 84.7299 80.3745 74.6526 66.9307 61.7806 57.1901 49.3704 42.2688 36.2465 33.5198 31.0513 27.2949 24.9429 25.1075 24.5873 23.6039 22.9273 23.5373 23.9754 23.5135 22.1784 20.164 18.7846 16.9173 15.7082 14.6043 13.1097 12.196 11.3579 10.6266 10.6369 10.1362 9.71124 9.58333 9.11765 8.84265
275.5825 0.00025 618.572 1720.48 2714.5 2299.8 2105.48 1776.84 1606.27 1440.97 1331.01 1227.69 1144.48 1029.73 949.408 857.623 747.784 672.286 587.033 535.578 490.224 465.604 445.971 425.485 403.691 381.065 360.892 346.389 323.806 315.128 311.323 318.284 314.089 288.841 280.479 284.56 296.404 290.329 286.229 290.69 290.344 297.794 300.532 298.275 296.207 286.993 274.499 265.63 268.785 261.941 252.315 248.357 244.944 242.715 227.283 217.033 202.748 175.262 152.501 142.493 129.597 123.109 118.381 110.435 105.04 93.8137 84.5061 80.4194 75.0538 67.2344 61.866 57.3564 49.583 42.4029 36.2866 33.5545 31.0964 27.3515 24.949 25.076 24.5702 23.5858 22.9049 23.4701 23.9029 23.5191 22.2141 20.2027 18.8242 16.9439 15.7316 14.6512 13.1458 12.1932 11.3539 10.6219 10.6279 10.1244 9.69499 9.57088 9.1041 8.83683
275.585 0.00025 619.677 1729.18 2725.25 2304.46 2107.84 1779.34 1604.75 1434.45 1328.29 1223.29 1144.48 1032.04 950.713 861.198 751.505 675.56 590.11 537.341 491.54 465.763 446.424 425.935 404.595 381.568 360.589 345.155 325.193 316.244 311.49 317.632 313.652 288.74 280.98 284.24 295.555 289.024 285.884 289.447 290.045 297.365 300.016 297.247 295.773 287.14 274.776 264.776 267.809 262.551 252.964 248.82 244.713 242.692 228.186 217.623 204.351 176.253 152.866 142.705 129.805 123.477 118.703 110.589 104.921 93.7454 84.2805 80.3839 75.457 67.5725 61.9698 57.5093 49.7984 42.5481 36.3309 33.5795 31.1387 27.4081 24.9594 25.0434 24.5535 23.5696 22.8851 23.4025 23.8298 23.5226 22.2492 20.2427 18.8638 16.971 15.7539 14.6967 13.1831 12.1907 11.3501 10.6175 10.619 10.1126 9.679 9.55858 9.09066 8.83123
275.5875 0.00025 620.835 1737.05 2735.37 2309.02 2109.02 1782.22 1604.63 1428.32 1325.18 1218.88 1144.15 1034.6 952.235 864.314 755.317 678.568 593.264 539.331 493.008 465.986 446.928 426.302 405.391 382.07 360.405 343.852 326.584 317.434 311.699 316.839 313.228 288.828 281.394 284.057 294.658 287.707 285.641 288.153 289.782 296.851 299.578 296.26 295.26 287.262 275.01 264.081 266.894 263.073 253.568 249.38 244.518 242.372 229.21 218.179 205.763 177.403 153.361 142.922 129.979 123.861 119.046 110.805 104.831 93.6904 84.0595 80.2723 75.8491 67.9414 62.0969 57.6506 50.0147 42.7029 36.3823 33.5943 31.1778 27.4644 24.974 25.0103 24.537 23.5552 22.868 23.3343 23.7562 23.5237 22.2837 20.2836 18.9035 16.9986 15.7753 14.7407 13.2216 12.1886 11.3465 10.6133 10.6102 10.1009 9.66327 9.54643 9.07734 8.82586
275.59 0.00025 622.09 1743.8 2744.5 2313.29 2109.34 1785.27 1605.86 1422.84 1321.74 1214.54 1143.3 1037.34 953.943 867.032 759.256 681.267 596.442 541.524 494.637 466.305 447.471 426.554 406.085 382.549 360.338 342.575 327.949 318.625 311.988 315.95 312.807 289.106 281.688 284.016 293.719 286.404 285.499 286.81 289.528 296.258 299.244 295.292 294.677 287.384 275.146 263.522 266.129 263.483 254.12 250.019 244.4 241.783 230.275 218.784 206.936 178.688 153.995 143.168 130.126 124.248 119.406 111.085 104.773 93.6504 83.8495 80.0927 76.2165 68.3362 62.2511 57.783 50.2306 42.8653 36.443 33.5993 31.213 27.5202 24.9929 24.977 24.5205 23.5426 22.8535 23.2657 23.6821 23.5225 22.3178 20.3255 18.9433 17.0269 15.7957 14.783 13.2612 12.187 11.3431 10.6094 10.6013 10.0893 9.64781 9.53441 9.06414 8.82071
275.5925 0.00025 623.432 1749.35 2752.39 2316.99 2109.1 1788.25 1608.2 1418.22 1318.05 1210.35 1141.77 1040.18 955.745 869.45 763.368 683.665 599.577 543.887 496.426 466.749 448.048 426.67 406.691 382.98 360.38 341.412 329.265 319.759 312.378 315.018 312.377 289.557 281.85 284.108 292.741 285.143 285.451 285.428 289.245 295.604 299.015 294.326 294.036 287.526 275.145 263.066 265.572 263.789 254.608 250.718 244.388 240.979 231.286 219.502 207.857 180.066 154.777 143.468 130.254 124.622 119.781 111.428 104.752 93.6262 83.655 79.8585 76.5443 68.7514 62.4345 57.9101 50.4455 43.033 36.515 33.5956 31.243 27.5752 25.0157 24.9441 24.5036 23.5321 22.8416 23.1969 23.6075 23.5186 22.3516 20.3681 18.9832 17.0561 15.8154 14.8236 13.3017 12.186 11.3398 10.6057 10.5926 10.0777 9.63263 9.52253 9.05105 8.8158