275.5025 0.00025 1097.6 1082.33 1703.78 1905.43 1799.86 1610.67 1455.99 1367.65 1165.17 1052.52 969.12 918.761 865.672 828.782 732.668 645.863 579.999 514.764 480.989 489.308 470.986 450.852 431.296 405.55 375.08 352.147 341.015 343.978 344.277 350.47 341.967 305.486 293.976 295.681 317.649 340.526 358.932 371.005 377.394 358.718 340.486 318.776 306.117 287.223 286.64 288.492 275.684 281.293 300.282 303.449 301.623 277.889 245.307 233.126 207.897 180.503 165.358 146.968 141.259 135.877 131.346 124.557 124.288 103.521 82.3412 74.5097 68.4044 66.8063 64.253 56.0284 52.9985 45.9237 38.5252 36.1193 38.108 37.0572 34.3 32.5337 29.1887 27.8944 28.3412 27.4485 24.7848 23.7142 25.0391 23.9285 22.1928 20.6464 20.0621 20.1912 19.175 18.8911 19.6927 19.7462 19.6175 18.9559 20.4606 20.9154 22.4557 8.39756
275.505 0.00025 1090.15 1084.81 1706.42 1904.82 1799.28 1611.88 1462.34 1363.25 1169.93 1057.91 969.656 919.56 865.578 824.233 731.972 644.673 580.482 514.642 480.208 489.526 471.353 451.426 433.494 405.126 374.414 351.496 340.49 343.317 343.527 349.565 342.003 306.206 294.243 295.421 317.026 340.96 356.96 370.044 378.037 357.884 339.824 319.293 308.176 288.426 287.096 288.905 275.232 279.792 300.476 305.142 302.132 278.765 246.197 233.752 207.725 180.467 166.57 147.069 140.987 135.718 131.542 124.994 124.136 104.361 83.1887 74.8224 68.628 66.7532 64.4025 56.174 53.173 46.3179 38.7386 36.1141 38.0783 36.9807 34.3744 32.5967 29.2423 27.8034 28.2997 27.4689 24.8334 23.7168 24.9775 23.9748 22.2421 20.6245 20.0688 20.2079 19.1515 18.8463 19.6794 19.7404 19.5889 18.9471 20.4513 20.8809 22.4321 8.38503
275.5075 0.00025 1082.74 1087.06 1709.31 1904.84 1798.89 1614.34 1469.15 1357.76 1175.2 1063.28 970.862 919.952 866.338 819.634 730.791 643.562 581.016 514.719 479.54 489.487 471.981 451.938 435.523 404.713 373.839 350.955 339.942 342.652 342.787 348.669 341.821 306.878 294.701 295.173 316.506 341.307 354.917 368.759 378.956 356.742 339.478 319.617 310.337 289.794 287.404 289.503 275.211 278.125 300.336 307.045 302.624 279.672 247.243 234.236 207.765 180.359 167.611 147.335 140.747 135.588 131.688 125.469 124.031 105.03 84.09 75.2228 68.8491 66.7002 64.5352 56.3381 53.3332 46.7062 38.9773 36.1171 38.0453 36.9045 34.4479 32.6524 29.3053 27.7152 28.2555 27.4894 24.8827 23.722 24.9137 24.0201 22.2932 20.6022 20.0765 20.224 19.1289 18.802 19.6653 19.735 19.56 18.9384 20.4424 20.8464 22.4086 8.37253
275.51 0.00025 1075.44 1088.94 1712.21 1905.52 1798.79 1617.95 1476.06 1351.4 1180.92 1068.61 972.794 919.907 867.9 815.253 729.099 642.498 581.594 514.993 479.031 489.216 472.822 452.404 437.348 404.346 373.353 350.538 339.367 341.982 342.056 347.823 341.408 307.506 295.326 294.954 316.109 341.517 352.875 367.168 380.018 355.447 339.378 319.779 312.548 291.361 287.51 290.296 275.574 276.442 299.819 309.04 303.165 280.578 248.482 234.545 208.001 180.28 168.423 147.738 140.557 135.479 131.815 125.924 124.022 105.538 85.0054 75.7156 69.0719 66.6503 64.6504 56.5198 53.4828 47.0853 39.2403 36.1302 38.0085 36.8289 34.5204 32.7009 29.3765 27.6307 28.2086 27.5101 24.9327 23.7298 24.8481 24.0642 22.346 20.5795 20.0853 20.2395 19.1071 18.7583 19.6503 19.7299 19.5309 18.9298 20.434 20.812 22.3854 8.36006
275.5125 0.00025 1068.34 1090.33 1715.03 1906.89 1799.07 1622.49 1482.69 1344.56 1186.95 1073.91 975.442 919.493 870.158 811.323 726.952 641.424 582.204 515.452 478.728 488.746 473.823 452.841 438.942 404.063 372.956 350.251 338.764 341.313 341.338 347.05 340.758 308.101 296.069 294.796 315.839 341.54 350.9 365.318 381.055 354.168 339.428 319.82 314.761 293.141 287.393 291.266 276.265 274.874 298.954 310.957 303.82 281.46 249.928 234.689 208.375 180.33 168.977 148.238 140.432 135.387 131.956 126.309 124.141 105.914 85.8976 76.2965 69.3022 66.607 64.747 56.7178 53.6257 47.4527 39.5256 36.1555 37.9675 36.7544 34.592 32.7422 29.4547 27.5511 28.1587 27.5309 24.9833 23.7402 24.7809 24.1067 22.4003 20.5569 20.0949 20.2543 19.0863 18.7151 19.6345 19.7252 19.5015 18.9212 20.4261 20.7776 22.3622 8.34761
275.515 0.00025 1061.49 1091.15 1717.78 1908.87 1799.78 1627.6 1488.73 1337.67 1193.06 1079.19 978.759 918.83 872.944 807.998 724.486 640.264 582.838 516.069 478.676 488.117 474.924 453.256 440.288 403.896 372.656 350.093 338.131 340.654 340.647 346.363 339.879 308.675 296.872 294.745 315.691 341.336 349.052 363.277 381.888 353.077 339.533 319.788 316.941 295.127 287.068 292.367 277.231 273.524 297.831 312.608 304.631 282.314 251.568 234.721 208.808 180.589 169.276 148.782 140.384 135.305 132.142 126.59 124.394 106.197 86.7366 76.953 69.5472 66.5737 64.8246 56.93 53.7655 47.8071 39.8309 36.1951 37.9222 36.6811 34.6624 32.7767 29.5387 27.4771 28.1058 27.552 25.0346 23.753 24.7125 24.1476 22.4559 20.5347 20.1052 20.2685 19.0664 18.6726 19.6178 19.7208 19.4718 18.9128 20.4187 20.7432 22.3393 8.33518
275.5175 0.00025 1055 1091.37 1720.34 1911.23 1800.91 1632.79 1494.01 1331.08 1198.95 1084.46 982.68 918.072 876.021 805.339 721.881 638.93 583.482 516.81 478.904 487.385 476.06 453.647 441.384 403.871 372.467 350.052 337.468 340.021 340.003 345.763 338.79 309.232 297.674 294.848 315.651 340.873 347.38 361.12 382.347 352.318 339.605 319.74 319.064 297.285 286.578 293.52 278.429 272.458 296.572 313.835 305.586 283.166 253.36 234.72 209.212 181.108 169.358 149.321 140.414 135.234 132.394 126.753 124.761 106.436 87.5015 77.6649 69.8139 66.5538 64.8838 57.1537 53.9047 48.1485 40.1528 36.2509 37.8726 36.6092 34.7317 32.8047 29.627 27.4098 28.0498 27.573 25.0866 23.768 24.6431 24.1866 22.5126 20.513 20.116 20.2821 19.0475 18.6307 19.6003 19.7167 19.4419 18.9043 20.4118 20.7089 22.3165 8.32277
275.52 0.00025 1048.96 1091 1722.58 1913.79 1802.49 1637.58 1498.51 1325.03 1204.34 1089.73 987.153 917.347 879.126 803.329 719.341 637.342 584.114 517.651 479.422 486.614 477.164 454.01 442.24 404.012 372.406 350.107 336.776 339.437 339.434 345.239 337.528 309.77 298.416 295.15 315.697 340.129 345.921 358.932 382.291 351.98 339.574 319.744 321.102 299.572 285.984 294.637 279.824 271.709 295.3 314.543 306.608 284.063 255.242 234.775 209.521 181.894 169.283 149.81 140.512 135.176 132.722 126.803 125.207 106.683 88.183 78.4074 70.1077 66.551 64.9258 57.386 54.0453 48.4786 40.4876 36.3249 37.8187 36.5388 34.7995 32.8268 29.7184 27.3498 27.9908 27.594 25.1393 23.7853 24.5732 24.2234 22.5703 20.4923 20.1271 20.2951 19.0296 18.5896 19.5819 19.7129 19.4118 18.8959 20.4054 20.6746 22.2939 8.31038
275.5225 0.00025 1043.35 1090.14 1724.42 1916.41 1804.59 1641.6 1502.33 1319.53 1209.03 1094.96 992.153 916.742 881.998 801.904 717.074 635.446 584.7 518.583 480.217 485.872 478.165 454.332 442.874 404.335 372.493 350.236 336.054 338.921 338.966 344.774 336.139 310.275 299.053 295.675 315.811 339.098 344.708 356.788 381.618 352.092 339.399 319.871 323.032 301.951 285.356 295.633 281.384 271.297 294.111 314.725 307.562 285.061 257.149 234.964 209.708 182.905 169.131 150.219 140.656 135.137 133.126 126.763 125.682 106.984 88.7836 79.1542 70.4303 66.5692 64.953 57.6238 54.1876 48.8 40.8312 36.4187 37.761 36.4701 34.8657 32.8435 29.8114 27.298 27.9289 27.6147 25.1929 23.8047 24.5029 24.2579 22.6287 20.4727 20.1384 20.3075 19.0128 18.5491 19.5628 19.7092 19.3815 18.8874 20.3994 20.6405 22.2714 8.29801
275.525 0.00025 1038.24 1088.85 1725.64 1919 1807.34 1644.66 1505.59 1314.47 1212.96 1100.09 997.668 916.313 884.418 800.981 715.237 633.222 585.193 519.616 481.251 485.226 479.007 454.601 443.303 404.859 372.743 350.41 335.307 338.489 338.629 344.348 334.679 310.73 299.559 296.427 315.978 337.781 343.766 354.753 380.288 352.621 339.071 320.184 324.828 304.388 284.753 296.438 283.072 271.231 293.066 314.455 308.284 286.197 259.027 235.343 209.79 184.057 168.989 150.54 140.82 135.124 133.597 126.667 126.131 107.377 89.3166 79.8805 70.7791 66.6128 64.9687 57.8638 54.3306 49.1167 41.1794 36.5336 37.6999 36.403 34.9299 32.8556 29.9046 27.255 27.8643 27.6349 25.2474 23.8259 24.4327 24.2899 22.6877 20.4547 20.1497 20.3194 18.997 18.5093 19.5428 19.7058 19.351 18.879 20.3939 20.6064 22.249 8.28565
275.5275 0.00025 1033.63 1087.19 1725.96 1921.67 1810.81 1646.78 1508.39 1309.69 1216.17 1105.03 1003.65 916.097 886.206 800.503 713.921 630.699 585.53 520.779 482.469 484.729 479.643 454.811 443.539 405.598 373.172 350.597 334.543 338.15 338.448 343.932 333.209 311.12 299.926 297.379 316.195 336.195 343.106 352.869 378.309 353.482 338.605 320.732 326.47 306.851 284.227 297.011 284.835 271.517 292.18 313.862 308.626 287.469 260.844 235.936 209.831 185.235 168.932 150.781 140.973 135.14 134.123 126.555 126.509 107.885 89.8051 80.5652 71.1472 66.6852 64.9782 58.1027 54.4717 49.4333 41.5281 36.6707 37.6364 36.3375 34.992 32.8637 29.9968 27.2212 27.7974 27.6544 25.3029 23.849 24.3629 24.3191 22.747 20.4384 20.1609 20.3307 18.9823 18.4702 19.5221 19.7024 19.3204 18.8705 20.3889 20.5723 22.2268 8.2733
275.53 0.00025 1029.53 1085.22 1725.29 1924.56 1815.06 1648.19 1510.7 1305 1218.8 1109.69 1010.03 916.148 887.22 800.427 713.155 627.946 585.628 522.123 483.807 484.42 480.044 454.965 443.588 406.562 373.788 350.769 333.774 337.901 338.449 343.501 331.785 311.435 300.156 298.48 316.467 334.372 342.723 351.168 375.743 354.545 338.041 321.531 327.96 309.308 283.825 297.327 286.607 272.164 291.443 313.094 308.494 288.817 262.585 236.741 209.924 186.317 169.016 150.971 141.087 135.183 134.684 126.466 126.778 108.51 90.2792 81.1946 71.5246 66.7876 64.9885 58.3377 54.6073 49.7549 41.8739 36.8303 37.5715 36.2735 35.0516 32.8686 30.0865 27.1969 27.7284 27.6728 25.3596 23.8737 24.2939 24.3452 22.8066 20.4242 20.1719 20.3414 18.9688 18.4319 19.5006 19.6992 19.2895 18.8619 20.3844 20.5384 22.2048 8.26097
275.5325 0.00025 1025.94 1082.94 1723.44 1927.83 1820.02 1649.17 1512.48 1300.34 1220.95 1113.97 1016.68 916.529 887.367 800.735 712.891 625.067 585.395 523.705 485.209 484.318 480.189 455.071 443.448 407.759 374.598 350.9 333.018 337.732 338.657 343.023 330.455 311.675 300.26 299.661 316.798 332.366 342.587 349.662 372.694 355.665 337.441 322.564 329.323 311.714 283.595 297.384 288.307 273.177 290.833 312.281 307.869 290.133 264.253 237.731 210.178 187.2 169.259 151.158 141.142 135.247 135.263 126.437 126.917 109.242 90.772 81.7607 71.9015 66.9177 65.0078 58.5664 54.7326 50.0856 42.2139 37.0125 37.5064 36.211 35.1084 32.8711 30.1728 27.1824 27.6579 27.6897 25.4176 23.9 24.2259 24.3683 22.8662 20.4123 20.1826 20.3515 18.9564 18.3943 19.4784 19.696 19.2585 18.8532 20.3803 20.5046 22.1829 8.24865
275.535 0.00025 1022.94 1080.35 1720.45 1931.59 1825.51 1649.95 1513.7 1295.64 1222.63 1117.81 1023.42 917.298 886.599 801.419 713.038 622.195 584.737 525.571 486.629 484.427 480.07 455.145 443.111 409.18 375.603 350.967 332.297 337.619 339.095 342.465 329.249 311.86 300.24 300.845 317.193 330.258 342.634 348.354 369.303 356.693 336.867 323.78 330.608 314.005 283.591 297.197 289.847 274.556 290.333 311.517 306.811 291.277 265.847 238.871 210.697 187.822 169.636 151.4 141.129 135.319 135.843 126.496 126.919 110.052 91.3159 82.2632 72.2683 67.0705 65.045 58.7886 54.8423 50.4289 42.5466 37.2165 37.4426 36.1497 35.162 32.872 30.2545 27.1777 27.5865 27.7047 25.477 23.9276 24.1594 24.3879 22.9256 20.4028 20.1929 20.361 18.9453 18.3574 19.4556 19.6928 19.2274 18.8445 20.3768 20.4709 22.1611 8.23634
275.5375 0.00025 1020.49 1077.39 1716.38 1935.95 1831.25 1650.67 1514.36 1290.89 1223.77 1121.25 1030.08 918.502 884.928 802.442 713.478 619.463 583.575 527.749 488.046 484.735 479.676 455.207 442.577 410.81 376.803 350.956 331.634 337.536 339.781 341.808 328.173 312.022 300.099 301.964 317.648 328.156 342.769 347.236 365.733 357.485 336.378 325.101 331.886 316.111 283.86 296.789 291.139 276.284 289.933 310.852 305.437 292.119 267.353 240.123 211.56 188.172 170.08 151.758 141.053 135.382 136.409 126.661 126.795 110.907 91.9379 82.7083 72.6174 67.2384 65.1065 59.0057 54.931 50.7866 42.8718 37.441 37.3817 36.0897 35.2121 32.8719 30.3307 27.1826 27.5147 27.7175 25.5379 23.9564 24.0945 24.4041 22.9846 20.396 20.2028 20.3698 18.9354 18.3213 19.4321 19.6895 19.1961 18.8356 20.3736 20.4373 22.1394 8.22403
275.54 0.00025 1018.7 1074.04 1711.33 1940.93 1837.04 1651.37 1514.54 1286.09 1224.25 1124.41 1036.45 920.155 882.447 803.75 714.109 616.984 581.868 530.229 489.464 485.215 479.002 455.277 441.853 412.615 378.191 350.864 331.051 337.454 340.727 341.043 327.207 312.202 299.837 302.96 318.145 326.187 342.88 346.298 362.161 357.925 336.007 326.44 333.242 317.958 284.435 296.2 292.109 278.321 289.652 310.299 303.884 292.567 268.734 241.449 212.817 188.297 170.497 152.285 140.931 135.422 136.946 126.94 126.565 111.769 92.6582 83.1069 72.9434 67.4139 65.1951 59.2221 54.9939 51.1579 43.1903 37.6842 37.3257 36.0308 35.2584 32.8716 30.4008 27.1968 27.4433 27.7275 25.6006 23.9862 24.0316 24.4167 23.0431 20.3921 20.2122 20.3779 18.9267 18.286 19.4081 19.6862 19.1648 18.8266 20.3709 20.4039 22.1179 8.21173
275.5425 0.00025 1017.57 1070.28 1705.39 1946.58 1842.64 1651.93 1514.42 1281.34 1223.87 1127.45 1042.39 922.225 879.321 805.254 714.877 614.832 579.628 532.956 490.914 485.824 478.045 455.363 440.959 414.548 379.759 350.702 330.57 337.348 341.928 340.187 326.308 312.444 299.458 303.794 318.657 324.478 342.849 345.518 358.758 357.925 335.761 327.718 334.747 319.499 285.33 295.476 292.705 280.595 289.528 309.837 302.285 292.592 269.926 242.818 214.473 188.286 170.788 153.004 140.8 135.422 137.441 127.332 126.26 112.601 93.4875 83.4745 73.242 67.5914 65.3087 59.4449 55.0283 51.5392 43.5049 37.9439 37.2763 35.9731 35.3006 32.8716 30.4639 27.2199 27.3729 27.7344 25.6651 24.0169 23.9711 24.4255 23.1008 20.3912 20.2212 20.3852 18.9193 18.2514 19.3836 19.6828 19.1333 18.8175 20.3687 20.3706 22.0965 8.19943
275.545 0.00025 1017.15 1066.02 1698.8 1952.83 1847.96 1652.13 1514.24 1276.77 1222.51 1130.49 1047.78 924.665 875.793 806.842 715.765 613.022 576.937 535.835 492.442 486.514 476.811 455.463 439.929 416.548 381.493 350.487 330.209 337.204 343.358 339.272 325.416 312.784 298.973 304.44 319.148 323.133 342.579 344.87 355.677 357.444 335.615 328.877 336.449 320.718 286.526 294.674 292.904 283.006 289.624 309.429 300.743 292.235 270.848 244.199 216.501 188.256 170.877 153.897 140.716 135.37 137.882 127.824 125.915 113.372 94.4254 83.8303 73.5116 67.7677 65.4403 59.6817 55.0339 51.9242 43.8188 38.2175 37.2356 35.9165 35.3383 32.8725 30.5199 27.2513 27.3045 27.7376 25.7315 24.0485 23.9131 24.4306 23.1574 20.3934 20.2297 20.3918 18.9132 18.2176 19.3586 19.6792 19.1017 18.8083 20.3669 20.3375 22.0752 8.18714
275.5475 0.00025 1017.49 1061.33 1691.8 1959.52 1853.07 1651.68 1514.2 1272.57 1220.13 1133.5 1052.53 927.431 872.13 808.397 716.793 611.534 573.933 538.741 494.105 487.226 475.319 455.558 438.815 418.544 383.369 350.25 329.979 337.023 344.97 338.351 324.465 313.248 298.411 304.887 319.582 322.223 342.019 344.312 353.046 356.485 335.524 329.893 338.353 321.64 287.974 293.865 292.709 285.437 290.008 309.03 299.326 291.586 271.421 245.559 218.835 188.327 170.735 154.897 140.744 135.263 138.258 128.4 125.565 114.06 95.4616 84.1952 73.752 67.9414 65.5811 59.9384 55.015 52.3036 44.1362 38.5025 37.2054 35.8613 35.3712 32.8749 30.5683 27.2904 27.2388 27.7369 25.7998 24.0807 23.858 24.4319 23.2128 20.399 20.2378 20.3975 18.9084 18.1845 19.3332 19.6754 19.07 18.7989 20.3655 20.3045 22.054 8.17485
275.55 0.00025 1018.59 1056.25 1684.65 1966.52 1858.13 1650.3 1514.44 1268.93 1216.89 1136.3 1056.59 930.47 868.594 809.826 717.996 610.328 570.801 541.529 495.965 487.905 473.602 455.615 437.679 420.467 385.35 350.032 329.886 336.825 346.701 337.477 323.397 313.841 297.817 305.133 319.931 321.762 341.172 343.792 350.95 355.097 335.427 330.766 340.422 322.327 289.595 293.125 292.153 287.763 290.738 308.607 298.063 290.766 271.589 246.863 221.387 188.607 170.39 155.902 140.951 135.106 138.559 129.036 125.245 114.654 96.5759 84.59 73.9645 68.1124 65.7222 60.2174 54.9796 52.6663 44.4612 38.7966 37.1876 35.8076 35.3991 32.879 30.6091 27.3361 27.1766 27.7317 25.8702 24.1135 23.8059 24.4294 23.2667 20.4079 20.2456 20.4023 18.9048 18.1523 19.3074 19.6713 19.0382 18.7894 20.3645 20.2718 22.033 8.16256
275.5525 0.00025 1020.57 1050.81 1677.58 1973.63 1863.33 1647.82 1514.95 1266.03 1213.09 1138.63 1059.95 933.728 865.409 811.059 719.393 609.384 567.735 544.056 498.067 488.492 471.705 455.583 436.589 422.256 387.384 349.877 329.925 336.651 348.472 336.699 322.172 314.551 297.25 305.183 320.18 321.715 340.1 343.247 349.429 353.368 335.253 331.522 342.573 322.878 291.289 292.527 291.291 289.875 291.837 308.155 296.95 289.892 271.336 248.067 224.059 189.176 169.916 156.785 141.387 134.921 138.775 129.707 124.979 115.154 97.7412 85.0345 74.1527 68.2812 65.8566 60.5163 54.9396 53.0007 44.7965 39.0981 37.184 35.7558 35.4217 32.8853 30.6423 27.3878 27.1187 27.7219 25.9425 24.1468 23.7571 24.4232 23.3188 20.4204 20.2531 20.4062 18.9024 18.1209 19.2813 19.667 19.0063 18.7797 20.3639 20.2392 22.0121 8.15028
275.555 0.00025 1023.35 1045.15 1670.92 1980.71 1868.81 1644.24 1515.64 1264 1209.14 1140.18 1062.67 937.131 862.737 812.064 720.968 608.717 564.92 546.193 500.44 488.94 469.685 455.403 435.612 423.859 389.408 349.836 330.084 336.555 350.203 336.051 320.778 315.348 296.777 305.038 320.336 321.998 338.908 342.616 348.475 351.425 334.932 332.2 344.705 323.41 292.943 292.134 290.193 291.685 293.282 307.701 295.96 289.059 270.698 249.121 226.748 190.077 169.429 157.432 142.071 134.746 138.903 130.389 124.786 115.569 98.9254 85.5448 74.3222 68.4481 65.9795 60.8284 54.9093 53.2965 45.1429 39.4058 37.196 35.7065 35.4386 32.894 30.668 27.4443 27.0658 27.707 26.0167 24.1805 23.7118 24.4134 23.3688 20.4364 20.2604 20.4091 18.9012 18.0903 19.2549 19.6624 18.9744 18.7698 20.3638 20.2069 21.9912 8.13799
275.5575 0.00025 1026.95 1039.42 1665 1987.61 1874.62 1639.72 1516.34 1262.92 1205.42 1140.69 1064.84 940.586 860.685 812.84 722.657 608.375 562.51 547.848 503.091 489.214 467.597 455.015 434.803 425.241 391.356 349.957 330.347 336.601 351.821 335.543 319.229 316.201 296.464 304.705 320.417 322.5 337.715 341.857 348.037 349.41 334.408 332.838 346.697 324.047 294.455 291.981 288.945 293.14 294.993 307.309 295.049 288.32 269.762 249.971 229.359 191.308 169.053 157.764 142.976 134.635 138.938 131.058 124.675 115.92 100.096 86.1307 74.4818 68.6137 66.089 61.1449 54.9025 53.5464 45.499 39.7194 37.2247 35.6605 35.4497 32.9051 30.6867 27.5046 27.0186 27.6871 26.0926 24.2146 23.67 24.4002 23.4164 20.456 20.2675 20.411 18.9012 18.0606 19.2283 19.6574 18.9424 18.7598 20.364 20.1748 21.9705 8.12569
275.56 0.00025 1031.32 1033.79 1660.27 1994.17 1880.69 1634.61 1516.91 1262.89 1202.22 1140.03 1066.57 943.956 859.311 813.422 724.367 608.415 560.62 548.971 505.995 489.303 465.501 454.361 434.204 426.385 393.161 350.279 330.698 336.852 353.262 335.167 317.559 317.079 296.36 304.198 320.444 323.092 336.628 340.958 348.016 347.46 333.646 333.467 348.437 324.899 295.75 292.064 287.638 294.231 296.849 307.069 294.168 287.682 268.659 250.563 231.818 192.832 168.912 157.751 144.031 134.648 138.883 131.693 124.646 116.23 101.223 86.7944 74.6432 68.7782 66.184 61.4564 54.9308 53.747 45.8603 40.0391 37.2713 35.6188 35.4547 32.9187 30.6987 27.5677 26.9777 27.6619 26.1701 24.249 23.6318 24.3837 23.4613 20.4793 20.2747 20.4119 18.9022 18.0318 19.2016 19.652 18.9103 18.7496 20.3645 20.1429 21.9499 8.1134
275.5625 0.00025 1036.43 1028.48 1657.07 2000.39 1886.78 1629.33 1517.19 1263.89 1199.68 1138.27 1067.97 947.051 858.658 813.874 726.002 608.883 559.323 549.562 509.091 489.204 463.448 453.399 433.834 427.289 394.76 350.834 331.13 337.364 354.474 334.899 315.81 317.966 296.494 303.546 320.428 323.665 335.725 339.944 348.284 345.694 332.642 334.099 349.825 326.051 296.797 292.334 286.37 294.983 298.701 307.076 293.276 287.117 267.539 250.849 234.074 194.575 169.106 157.427 145.127 134.847 138.751 132.275 124.697 116.52 102.284 87.5284 74.8217 68.9417 66.2642 61.7551 55.0022 53.8998 46.2206 40.3652 37.3367 35.5825 35.4534 32.9347 30.7045 27.6327 26.9436 27.6316 26.2489 24.2838 23.5974 24.3642 23.5032 20.5062 20.2819 20.4117 18.9042 18.004 19.1747 19.6462 18.8781 18.7392 20.3654 20.1113 21.9294 8.10109
275.565 0.00025 1042.22 1023.74 1655.49 2006.36 1892.58 1624.35 1517.11 1265.92 1197.76 1135.67 1069.06 949.679 858.748 814.254 727.486 609.796 558.659 549.662 512.295 488.937 461.491 452.101 433.698 427.967 396.099 351.641 331.643 338.176 355.417 334.707 314.025 318.865 296.868 302.796 320.365 324.141 335.039 338.873 348.705 344.197 331.425 334.733 350.781 327.55 297.614 292.704 285.234 295.449 300.396 307.414 292.353 286.573 266.549 250.799 236.089 196.454 169.695 156.872 146.138 135.279 138.563 132.789 124.82 116.809 103.269 88.3155 75.0348 69.1045 66.3301 62.0343 55.12 54.0102 46.5718 40.6979 37.4217 35.5528 35.4457 32.9531 30.7048 27.6983 26.9167 27.5961 26.3287 24.3191 23.5668 24.3419 23.5417 20.5369 20.2894 20.4106 18.9071 17.9771 19.1478 19.64 18.8459 18.7287 20.3667 20.08 21.909 8.08878
275.5675 0.00025 1048.67 1019.81 1655.46 2012.17 1897.8 1620.06 1516.56 1268.93 1196.38 1132.58 1069.84 951.702 859.56 814.621 728.779 611.146 558.632 549.35 515.507 488.532 459.674 450.459 433.777 428.445 397.135 352.708 332.254 339.305 356.066 334.562 312.241 319.796 297.462 302.004 320.229 324.474 334.559 337.829 349.141 343.022 330.051 335.359 351.247 329.402 298.264 293.06 284.314 295.698 301.8 308.124 291.411 285.987 265.801 250.417 237.833 198.391 170.692 156.205 146.944 135.961 138.353 133.22 125.006 117.112 104.172 89.1313 75.3006 69.267 66.3841 62.2883 55.2835 54.0867 46.9063 41.0365 37.5271 35.5313 35.4317 32.9736 30.7001 27.7638 26.8974 27.5558 26.409 24.3549 23.5401 24.3171 23.5766 20.5712 20.2971 20.4085 18.9107 17.9513 19.1208 19.6333 18.8136 18.718 20.3683 20.0489 21.8887 8.07646
275.57 0.00025 1055.74 1016.89 1656.83 2017.93 1902.21 1616.79 1515.46 1272.83 1195.43 1129.36 1070.3 953.079 861 815.04 729.857 612.903 559.22 548.73 518.618 488.023 458.044 448.491 434.033 428.76 397.837 354.031 332.987 340.747 356.407 334.431 310.498 320.777 298.239 301.227 319.99 324.651 334.235 336.905 349.474 342.175 328.6 335.958 351.189 331.575 298.84 293.286 283.678 295.809 302.819 309.191 290.501 285.305 265.351 249.756 239.263 200.33 172.064 155.559 147.456 136.878 138.168 133.559 125.242 117.443 104.995 89.9493 75.6337 69.4309 66.4299 62.5121 55.4899 54.1397 47.2169 41.3788 37.6539 35.5198 35.4112 32.996 30.6913 27.8281 26.8857 27.5111 26.4895 24.3912 23.5172 24.2901 23.6075 20.6091 20.3053 20.4054 18.9149 17.9266 19.0938 19.6261 18.7813 18.7071 20.3702 20.0182 21.8685 8.06413
275.5725 0.00025 1063.27 1015.05 1659.49 2023.55 1905.72 1614.71 1513.79 1277.48 1194.83 1126.27 1070.41 953.876 862.873 815.606 730.713 615.036 560.377 547.934 521.523 487.445 456.64 446.236 434.414 428.955 398.189 355.588 333.875 342.477 356.441 334.286 308.84 321.819 299.163 300.515 319.609 324.688 333.996 336.182 349.621 341.62 327.156 336.516 350.61 333.996 299.442 293.29 283.364 295.859 303.399 310.539 289.718 284.488 265.182 248.923 240.32 202.252 173.728 155.063 147.632 137.976 138.06 133.803 125.512 117.814 105.74 90.7447 76.0435 69.5994 66.4716 62.7015 55.7338 54.1799 47.498 41.7217 37.8027 35.5199 35.3845 33.0199 30.6789 27.8905 26.8816 27.4622 26.5695 24.4281 23.4982 24.2612 23.6342 20.6507 20.3142 20.4014 18.9197 17.903 19.0669 19.6184 18.7489 18.6961 20.3723 19.9878 21.8484 8.05177
275.575 0.00025 1071.21 1014.35 1663.35 2028.89 1908.38 1613.85 1511.53 1282.64 1194.58 1123.48 1070.19 954.257 864.911 816.418 731.353 617.522 562.029 547.106 524.123 486.828 455.497 443.752 434.856 429.067 398.198 357.355 334.957 344.447 356.18 334.097 307.326 322.911 300.205 299.902 319.06 324.611 333.764 335.725 349.532 341.288 325.807 337.015 349.552 336.558 300.165 293.022 283.377 295.922 303.537 312.036 289.186 283.52 265.213 248.062 240.934 204.168 175.576 154.823 147.481 139.17 138.082 133.956 125.795 118.242 106.408 91.4978 76.5324 69.7778 66.5133 62.8539 56.0082 54.2174 47.7463 42.0607 37.974 35.5339 35.3518 33.045 30.6636 27.9503 26.8851 27.4099 26.6486 24.4658 23.4829 24.2308 23.6564 20.6956 20.3237 20.3965 18.9247 17.8807 19.04 19.6102 18.7165 18.6849 20.3748 19.9577 21.8284 8.0394
275.5775 0.00025 1079.39 1014.78 1668.33 2033.74 1910.35 1614.13 1508.7 1287.99 1194.7 1121.06 1069.63 954.446 866.802 817.573 731.792 620.337 564.086 546.399 526.331 486.199 454.634 441.115 435.287 429.125 397.888 359.292 336.272 346.596 355.651 333.835 306.026 324.026 301.341 299.397 318.332 324.445 333.473 335.561 349.199 341.084 324.632 337.439 348.1 339.126 301.084 292.486 283.685 296.063 303.272 313.513 289.039 282.408 265.318 247.332 241.038 206.105 177.49 154.909 147.062 140.354 138.278 134.033 126.072 118.74 107.001 92.1938 77.0973 69.9718 66.5594 62.9695 56.3047 54.2606 47.9611 42.3907 38.1675 35.5638 35.3136 33.0708 30.6463 28.0069 26.896 27.3547 26.7262 24.5045 23.4714 24.1992 23.6738 20.744 20.334 20.391 18.9298 17.8597 19.0132 19.6015 18.6839 18.6736 20.3775 19.9279 21.8084 8.02702
275.58 0.00025 1087.78 1016.26 1674.13 2037.98 1911.83 1615.36 1505.31 1293.25 1195.15 1119.06 1068.74 954.681 868.268 819.123 732.057 623.448 566.453 545.955 528.087 485.579 454.058 438.415 435.637 429.145 397.305 361.359 337.854 348.844 354.893 333.479 305.002 325.123 302.556 298.992 317.439 324.199 333.085 335.677 348.645 340.904 323.693 337.765 346.38 341.545 302.244 291.75 284.223 296.333 302.671 314.788 289.395 281.183 265.362 246.864 240.603 208.079 179.37 155.345 146.472 141.419 138.676 134.061 126.32 119.316 107.525 92.8211 77.7322 70.1852 66.6147 63.0516 56.6135 54.3156 48.1441 42.7057 38.3825 35.6122 35.2705 33.097 30.6274 28.0598 26.9137 27.2973 26.8015 24.5442 23.4636 24.1666 23.6864 20.7954 20.3454 20.3847 18.9349 17.84 18.9865 19.5922 18.6514 18.6621 20.3804 19.8985 21.7886 8.01462
275.5825 0.00025 1096.26 1018.66 1680.37 2041.61 1913.01 1617.33 1501.39 1298.14 1195.82 1117.5 1067.5 955.141 869.134 821.075 732.188 626.807 569.037 545.901 529.354 484.991 453.756 435.754 435.841 429.127 396.509 363.516 339.733 351.107 353.954 333.016 304.307 326.165 303.836 298.668 316.422 323.858 332.602 336.02 347.919 340.649 323.046 337.968 344.548 343.654 303.65 290.934 284.902 296.759 301.823 315.699 290.326 279.904 265.231 246.725 239.662 210.076 181.153 156.105 145.831 142.266 139.28 134.075 126.521 119.971 107.991 93.3682 78.4311 70.4191 66.6836 63.1059 56.924 54.3868 48.2994 42.9999 38.617 35.6813 35.2232 33.123 30.6077 28.1086 26.9379 27.2387 26.8741 24.585 23.4593 24.1335 23.6939 20.8499 20.3578 20.3779 18.9397 17.8217 18.96 19.5823 18.6188 18.6504 20.3836 19.8695 21.7688 8.0022
275.585 0.00025 1104.74 1021.92 1686.73 2044.76 1914.04 1619.8 1496.91 1302.41 1196.58 1116.4 1065.93 955.892 869.362 823.363 732.225 630.349 571.753 546.338 530.122 484.455 453.698 433.237 435.845 429.062 395.57 365.727 341.923 353.291 352.89 332.453 303.967 327.136 305.153 298.401 315.348 323.385 332.056 336.507 347.074 340.233 322.722 338.024 342.766 345.316 305.262 290.195 285.626 297.352 300.821 316.122 291.839 278.664 264.851 246.896 238.325 212.034 182.824 157.124 145.266 142.823 140.069 134.12 126.662 120.695 108.416 93.8263 79.1882 70.6725 66.7707 63.1395 57.2266 54.4756 48.433 43.2676 38.8682 35.7736 35.173 33.1483 30.5876 28.1532 26.9679 27.1795 26.9433 24.6271 23.4585 24.1002 23.6963 20.9071 20.3715 20.3707 18.9441 17.8048 18.9337 19.5718 18.5861 18.6387 20.3869 19.8409 21.7491 7.98976
275.5875 0.00025 1113.2 1025.91 1692.96 2047.55 1914.99 1622.59 1491.9 1305.81 1197.38 1115.76 1064.09 956.885 869.071 825.904 732.203 634.003 574.541 547.324 530.406 483.994 453.843 430.972 435.603 428.934 394.56 367.961 344.419 355.314 351.761 331.815 303.972 328.041 306.469 298.173 314.292 322.733 331.51 337.046 346.16 339.604 322.73 337.916 341.178 346.436 306.993 289.706 286.313 298.103 299.762 315.996 293.861 277.586 264.182 247.28 236.766 213.853 184.412 158.302 144.891 143.052 140.994 134.243 126.738 121.471 108.82 94.1894 79.9959 70.9431 66.8792 63.1613 57.514 54.5805 48.5515 43.5044 39.1323 35.8912 35.1211 33.1725 30.5677 28.1934 27.003 27.1208 27.0084 24.6707 23.4611 24.0668 23.6936 20.9668 20.3865 20.3632 18.9479 17.7895 18.9076 19.5608 18.5534 18.6268 20.3904 19.8127 21.7295 7.97729
275.59 0.00025 1121.53 1030.52 1698.9 2049.95 1915.87 1625.57 1486.36 1308.14 1198.25 1115.49 1062.02 957.97 868.452 828.592 732.168 637.676 577.374 548.874 530.254 483.635 454.146 429.055 435.088 428.722 393.548 370.197 347.194 357.105 350.624 331.142 304.28 328.905 307.74 297.977 313.323 321.849 331.032 337.545 345.208 338.739 323.052 337.635 339.89 346.98 308.725 289.627 286.907 298.978 298.731 315.319 296.246 276.816 263.224 247.732 235.189 215.418 185.97 159.525 144.801 142.955 141.984 134.493 126.755 122.279 109.221 94.4586 80.843 71.2301 67.0096 63.1799 57.7816 54.6977 48.6621 43.7073 39.4042 36.0358 35.0692 33.1953 30.5484 28.2292 27.0425 27.0632 27.0689 24.7158 23.4668 24.0338 23.6857 21.0286 20.403 20.3556 18.9508 17.7757 18.8818 19.5491 18.5207 18.6148 20.3941 19.7849 21.71 7.96481
275.5925 0.00025 1129.69 1035.65 1704.58 2051.82 1916.62 1628.67 1480.33 1309.21 1199.33 1115.44 1059.8 958.961 867.715 831.341 732.157 641.258 580.264 550.945 529.736 483.398 454.562 427.566 434.291 428.406 392.603 372.419 350.194 358.614 349.537 330.482 304.82 329.764 308.923 297.817 312.498 320.703 330.683 337.945 344.223 337.645 323.651 337.191 338.965 346.968 310.322 290.08 287.394 299.925 297.803 314.143 298.801 276.49 262.002 248.099 233.771 216.641 187.55 160.688 145.06 142.571 142.953 134.907 126.73 123.092 109.632 94.6438 81.7134 71.535 67.1597 63.2036 58.028 54.8213 48.7709 43.8755 39.6783 36.2085 35.0194 33.2161 30.5299 28.2607 27.0856 27.0078 27.1243 24.7625 23.4756 24.0014 23.6727 21.0923 20.4211 20.3481 18.9527 17.7636 18.8562 19.5369 18.4879 18.6027 20.398 19.7575 21.6906 7.9523