275.5025 0.00025 0.104518 0.165873 0.263108 0.308068 0.316448 0.288758 0.259159 0.244188 0.239316 0.22438 0.221319 0.205555 0.186543 0.178697 0.178015 0.167086 0.158001 0.152014 0.142759 0.13027 0.125107 0.129109 0.130839 0.138034 0.139909 0.137806 0.126445 0.118087 0.113021 0.114266 0.110689 0.109861 0.114866 0.123854 0.12871 0.131356 0.132401 0.132022 0.133811 0.132107 0.129839 0.134689 0.139934 0.144921 0.144179 0.144477 0.149212 0.150286 0.14376 0.130939 0.114412 0.0967931 0.0850898 0.0780651 0.0754371 0.0740839 0.0690967 0.0652763 0.0596547 0.0559282 0.0539231 0.0511673 0.0473313 0.0457256 0.0435336 0.0383627 0.0330981 0.0298792 0.0271563 0.0258248 0.0234993 0.0213835 0.0199966 0.0187555 0.0170857 0.0169936 0.0174461 0.017488 0.0175296 0.0171147 0.0164435 0.015512 0.014449 0.0136941 0.0130251 0.0128635 0.0128706 0.012879 0.0129372 0.0127114 0.0121816 0.0116 0.0109163 0.0110856 0.0127067 0.01461 0.0164333 0.0191308 0.0229654 0.0299739
275.505 0.00025 0.103996 0.164865 0.262988 0.309092 0.316929 0.289177 0.258851 0.244574 0.239397 0.223967 0.221712 0.20646 0.18695 0.178901 0.178299 0.167432 0.158128 0.152252 0.142938 0.130267 0.125018 0.128589 0.130283 0.13825 0.140382 0.137993 0.126446 0.118072 0.113047 0.114425 0.110858 0.11013 0.115163 0.124172 0.128846 0.131437 0.13294 0.132432 0.134043 0.132497 0.129944 0.134583 0.139541 0.144482 0.1441 0.144483 0.149331 0.150564 0.143787 0.130864 0.114682 0.0970229 0.0852748 0.0782711 0.0756125 0.0742553 0.0691326 0.0655131 0.0600036 0.0561865 0.0541065 0.0512898 0.0474572 0.0456913 0.043559 0.0385398 0.0332027 0.029937 0.0271705 0.0258321 0.0235314 0.0214119 0.0200481 0.0188366 0.017145 0.0170023 0.0174215 0.0174836 0.0175285 0.0171029 0.0164311 0.0155188 0.0144568 0.0137025 0.013032 0.0128453 0.0128506 0.0128638 0.0129129 0.0126899 0.0121863 0.0116172 0.010923 0.0110797 0.012705 0.0146116 0.0164272 0.0191171 0.0229468 0.0299487
275.5075 0.00025 0.103477 0.163827 0.262861 0.309983 0.317296 0.289598 0.258641 0.245024 0.239419 0.223561 0.22192 0.207379 0.187482 0.17913 0.178581 0.167809 0.158295 0.152489 0.14312 0.130291 0.124931 0.128076 0.129742 0.13845 0.140812 0.138153 0.126476 0.118069 0.113077 0.114553 0.111013 0.110398 0.115482 0.124502 0.128997 0.131503 0.133434 0.132881 0.134261 0.132915 0.130058 0.134514 0.139125 0.144027 0.144076 0.144544 0.149464 0.150871 0.143802 0.13068 0.1149 0.097252 0.0854797 0.0785458 0.0757906 0.074413 0.0691759 0.0657269 0.0603571 0.0564545 0.0543034 0.0514039 0.0475775 0.0456775 0.0435697 0.0386967 0.0333101 0.0300008 0.0271928 0.0258372 0.023559 0.0214369 0.020096 0.0189173 0.0172077 0.0170128 0.0173967 0.0174791 0.0175272 0.0170915 0.0164182 0.0155249 0.0144644 0.0137107 0.0130394 0.0128271 0.0128302 0.0128485 0.0128886 0.0126683 0.0121905 0.0116342 0.01093 0.011074 0.0127035 0.0146131 0.0164212 0.0191035 0.0229283 0.0299236
275.51 0.00025 0.102968 0.162771 0.262723 0.310693 0.317545 0.290034 0.25853 0.245514 0.239409 0.223198 0.221964 0.208311 0.188141 0.179392 0.178864 0.168217 0.158505 0.152729 0.143302 0.130342 0.12485 0.127575 0.129222 0.138629 0.141196 0.138289 0.126534 0.118075 0.113113 0.114652 0.111158 0.110664 0.115819 0.124845 0.12917 0.131556 0.13387 0.133367 0.134483 0.133343 0.130182 0.134478 0.138693 0.143553 0.144106 0.144663 0.149619 0.151193 0.143811 0.130397 0.115056 0.0974793 0.0856937 0.0788887 0.0759788 0.0745519 0.0692315 0.0659197 0.0607099 0.056731 0.0545117 0.0515159 0.0476854 0.0456822 0.0435699 0.038831 0.0334177 0.0300698 0.0272228 0.0258419 0.0235824 0.0214584 0.0201402 0.0189971 0.0172737 0.0170251 0.0173717 0.0174742 0.017526 0.0170805 0.0164051 0.0155302 0.0144718 0.0137189 0.0130474 0.0128091 0.0128094 0.0128332 0.0128644 0.0126468 0.0121943 0.0116511 0.0109372 0.0110687 0.0127021 0.0146147 0.0164152 0.0190901 0.02291 0.0298988
275.5125 0.00025 0.102469 0.161713 0.262551 0.311197 0.317653 0.290503 0.258526 0.246036 0.239409 0.222881 0.221837 0.209243 0.188919 0.179686 0.17916 0.168656 0.158755 0.152973 0.143483 0.130418 0.124775 0.127091 0.128729 0.138782 0.141525 0.138403 0.126623 0.118089 0.113154 0.114723 0.111293 0.110929 0.116171 0.125201 0.129374 0.131599 0.134246 0.133887 0.13472 0.133765 0.130324 0.134471 0.13826 0.14306 0.144181 0.144839 0.149797 0.151518 0.14382 0.130041 0.115138 0.0977038 0.0859084 0.0792928 0.0761872 0.0746692 0.0693051 0.0660961 0.0610562 0.0570157 0.0547278 0.051632 0.0477786 0.0457025 0.0435653 0.0389431 0.0335244 0.0301435 0.0272606 0.0258469 0.0236014 0.0214761 0.0201802 0.0190754 0.0173427 0.0170393 0.0173466 0.017469 0.0175246 0.0170699 0.0163917 0.0155347 0.014479 0.0137269 0.0130558 0.0127913 0.012788 0.0128178 0.0128403 0.0126253 0.0121976 0.0116679 0.0109447 0.0110636 0.012701 0.0146163 0.0164093 0.0190768 0.0228918 0.0298741
275.515 0.00025 0.101976 0.160677 0.262356 0.311486 0.31761 0.290997 0.25862 0.246572 0.239452 0.22264 0.221549 0.210169 0.189803 0.18003 0.17947 0.169128 0.159049 0.153223 0.143657 0.130519 0.124712 0.126629 0.128266 0.138907 0.1418 0.138506 0.126745 0.118111 0.113201 0.114773 0.111419 0.111193 0.116531 0.125566 0.129613 0.131635 0.134552 0.134428 0.134986 0.134166 0.130491 0.134489 0.137834 0.142549 0.144287 0.145076 0.150003 0.151837 0.14383 0.129634 0.115144 0.0979233 0.0861206 0.0797475 0.0764217 0.0747641 0.069398 0.0662616 0.0613919 0.0573091 0.0549472 0.0517566 0.0478554 0.0457325 0.0435593 0.0390335 0.0336283 0.030221 0.0273056 0.0258536 0.0236167 0.0214896 0.020216 0.0191522 0.0174148 0.0170554 0.0173215 0.0174634 0.0175231 0.0170596 0.0163781 0.0155385 0.014486 0.0137348 0.0130645 0.0127737 0.0127663 0.0128022 0.0128163 0.0126039 0.0122005 0.0116845 0.0109525 0.0110589 0.0126999 0.0146179 0.0164034 0.0190637 0.0228737 0.0298496
275.5175 0.00025 0.101496 0.159681 0.262135 0.311576 0.317414 0.291518 0.258822 0.247109 0.239571 0.222487 0.221116 0.211074 0.19078 0.180423 0.179784 0.169636 0.159385 0.153477 0.143821 0.130641 0.124662 0.126199 0.12784 0.138998 0.142018 0.138597 0.126898 0.118139 0.113253 0.114801 0.111536 0.111456 0.116895 0.125933 0.12989 0.13167 0.134787 0.13498 0.135293 0.134529 0.130688 0.134526 0.137427 0.142029 0.144416 0.145375 0.150241 0.152138 0.14383 0.129198 0.115074 0.0981339 0.0863275 0.0802367 0.0766909 0.0748415 0.0695105 0.0664237 0.0617143 0.0576104 0.0551682 0.0518934 0.0479192 0.0457676 0.0435554 0.0391045 0.0337284 0.0303017 0.0273574 0.0258625 0.0236291 0.0214991 0.0202473 0.0192266 0.0174895 0.0170736 0.0172965 0.0174575 0.0175216 0.0170495 0.0163643 0.0155416 0.0144929 0.0137426 0.0130736 0.0127564 0.0127442 0.0127864 0.0127925 0.0125826 0.012203 0.0117008 0.0109606 0.0110545 0.0126991 0.0146196 0.0163976 0.0190508 0.0228557 0.0298252
275.52 0.00025 0.101038 0.158743 0.261874 0.311465 0.317058 0.292045 0.259135 0.247652 0.239788 0.222437 0.220562 0.211941 0.191843 0.180878 0.180098 0.170182 0.159766 0.153743 0.143974 0.130783 0.124627 0.125803 0.127449 0.139052 0.142181 0.138685 0.127081 0.118172 0.11331 0.114815 0.111642 0.111723 0.11726 0.126299 0.130207 0.131712 0.134949 0.135535 0.135649 0.134847 0.130916 0.134572 0.137046 0.141507 0.144554 0.145733 0.150516 0.152414 0.143815 0.128749 0.114933 0.0983279 0.0865286 0.0807449 0.0769944 0.0749103 0.0696393 0.0665874 0.0620203 0.0579172 0.0553886 0.0520443 0.0479744 0.0458009 0.0435545 0.0391583 0.0338235 0.0303846 0.0274146 0.0258739 0.0236393 0.0215042 0.0202741 0.0192985 0.0175667 0.0170938 0.0172718 0.0174511 0.0175202 0.0170396 0.0163505 0.0155439 0.0144995 0.0137503 0.0130829 0.0127396 0.0127218 0.0127703 0.0127688 0.0125615 0.012205 0.0117169 0.0109689 0.0110505 0.0126985 0.0146212 0.0163919 0.019038 0.0228379 0.0298011
275.5225 0.00025 0.1006 0.157867 0.261597 0.31118 0.316537 0.29255 0.259552 0.24823 0.240116 0.222496 0.219911 0.212763 0.192978 0.181394 0.180406 0.170771 0.160188 0.154022 0.144114 0.130939 0.124607 0.125446 0.127093 0.139065 0.142286 0.138764 0.127289 0.118209 0.113367 0.114818 0.111743 0.111997 0.117624 0.126655 0.130563 0.131766 0.135038 0.13608 0.136054 0.135113 0.131173 0.134626 0.136698 0.140993 0.144685 0.146148 0.150832 0.152654 0.143776 0.128302 0.114733 0.0985001 0.0867279 0.0812548 0.0773286 0.0749821 0.06978 0.0667559 0.0623106 0.0582249 0.0556061 0.0522062 0.0480267 0.0458282 0.0435558 0.0391977 0.0339132 0.0304688 0.0274768 0.025888 0.0236489 0.0215054 0.0202963 0.0193673 0.0176463 0.017116 0.0172475 0.0174442 0.0175188 0.0170299 0.0163368 0.0155456 0.0145059 0.0137579 0.0130924 0.0127231 0.012699 0.012754 0.0127452 0.0125406 0.0122066 0.0117328 0.0109774 0.0110468 0.012698 0.0146229 0.0163862 0.0190254 0.0228202 0.0297771
275.525 0.00025 0.100186 0.157067 0.261322 0.31073 0.315875 0.293014 0.260062 0.24887 0.240565 0.222681 0.219204 0.213525 0.194195 0.181977 0.180695 0.171402 0.160661 0.15432 0.144245 0.131111 0.124603 0.125133 0.126772 0.139038 0.142336 0.138842 0.127522 0.118251 0.113423 0.114813 0.11184 0.112281 0.11798 0.127 0.13096 0.131844 0.135058 0.13661 0.136509 0.135328 0.131457 0.134684 0.136392 0.140502 0.144804 0.146614 0.15119 0.152851 0.143706 0.127863 0.114485 0.0986449 0.0869295 0.0817539 0.0776835 0.0750716 0.06993 0.0669304 0.0625864 0.0585324 0.0558191 0.0523764 0.0480806 0.0458448 0.0435583 0.0392259 0.0339975 0.0305538 0.0275433 0.0259051 0.023659 0.0215021 0.0203137 0.0194327 0.0177278 0.0171404 0.0172237 0.0174369 0.0175176 0.0170202 0.016323 0.0155465 0.014512 0.0137653 0.0131021 0.0127072 0.012676 0.0127373 0.0127217 0.0125199 0.0122077 0.0117482 0.0109861 0.0110435 0.0126977 0.0146245 0.0163805 0.019013 0.0228026 0.0297532
275.5275 0.00025 0.0998073 0.156345 0.261057 0.310093 0.31508 0.293422 0.260663 0.24961 0.241121 0.222989 0.21847 0.21421 0.195475 0.182625 0.180957 0.172066 0.161186 0.154637 0.144364 0.131293 0.124618 0.124868 0.12649 0.13897 0.142332 0.138916 0.127777 0.118299 0.113477 0.114804 0.111937 0.112575 0.118324 0.127325 0.131389 0.131951 0.135011 0.137118 0.137002 0.135496 0.131759 0.134744 0.136132 0.140042 0.144903 0.147122 0.151596 0.153003 0.143602 0.127435 0.114208 0.0987592 0.0871362 0.082234 0.0780461 0.0751918 0.070088 0.0671133 0.06285 0.0588341 0.0560275 0.0525521 0.0481426 0.0458484 0.0435592 0.0392453 0.0340769 0.030639 0.0276129 0.0259243 0.0236706 0.0214951 0.0203266 0.0194946 0.017811 0.017167 0.0172006 0.0174291 0.0175165 0.0170105 0.0163093 0.0155469 0.014518 0.0137727 0.0131118 0.0126919 0.0126529 0.0127204 0.0126985 0.0124995 0.0122084 0.0117634 0.010995 0.0110405 0.0126976 0.0146261 0.016375 0.0190008 0.0227851 0.0297295
275.53 0.00025 0.0994574 0.155698 0.260821 0.309278 0.314174 0.293753 0.261325 0.250451 0.24176 0.223423 0.21775 0.214804 0.196805 0.183342 0.181193 0.172756 0.161768 0.15498 0.144476 0.13148 0.124649 0.124651 0.126249 0.138861 0.142279 0.138983 0.12805 0.118354 0.113523 0.114794 0.112039 0.112883 0.118654 0.127626 0.131844 0.132094 0.13491 0.137602 0.137522 0.135625 0.132068 0.134807 0.135919 0.139623 0.144982 0.147668 0.152046 0.153104 0.143458 0.127019 0.113913 0.098844 0.0873485 0.0826867 0.0784019 0.0753553 0.0702565 0.0673024 0.0631055 0.0591297 0.0562318 0.05273 0.0482182 0.04584 0.0435556 0.0392588 0.0341525 0.0307241 0.0276849 0.0259455 0.0236845 0.0214843 0.0203346 0.0195518 0.0178954 0.0171955 0.0171781 0.0174207 0.0175154 0.0170008 0.0162957 0.0155466 0.0145237 0.0137799 0.0131215 0.012677 0.0126295 0.012703 0.0126753 0.0124794 0.0122086 0.0117782 0.0110041 0.0110379 0.0126976 0.0146278 0.0163695 0.0189887 0.0227678 0.029706
275.5325 0.00025 0.0991466 0.155127 0.260616 0.308282 0.313191 0.294039 0.262082 0.251404 0.242458 0.223986 0.217087 0.215291 0.198178 0.184132 0.181406 0.173447 0.162412 0.155352 0.14458 0.131666 0.124702 0.124478 0.126048 0.138715 0.14218 0.139042 0.128332 0.118415 0.113558 0.114785 0.112151 0.113205 0.118967 0.127899 0.132318 0.132275 0.134762 0.138061 0.138051 0.135729 0.132373 0.134874 0.135755 0.139255 0.145038 0.148237 0.152541 0.153154 0.143273 0.126613 0.113609 0.0989034 0.0875675 0.0831094 0.0787365 0.0755677 0.0704416 0.0674937 0.0633559 0.0594156 0.0564303 0.0529046 0.0483103 0.0458197 0.0435435 0.0392673 0.0342247 0.0308092 0.0277585 0.0259683 0.0237019 0.0214703 0.020338 0.0196047 0.0179806 0.0172262 0.0171565 0.0174119 0.0175146 0.0169911 0.0162823 0.0155459 0.0145292 0.0137871 0.0131312 0.0126628 0.0126061 0.0126852 0.0126523 0.0124597 0.0122084 0.0117926 0.0110134 0.0110357 0.0126978 0.0146294 0.016364 0.0189768 0.0227506 0.0296826
275.535 0.00025 0.0988797 0.154642 0.26046 0.307132 0.312118 0.294285 0.262931 0.252453 0.243195 0.22467 0.216517 0.21566 0.199573 0.184994 0.181602 0.174117 0.163124 0.155755 0.144678 0.131849 0.124778 0.124346 0.125891 0.138536 0.14204 0.13909 0.128625 0.118488 0.113581 0.114779 0.112281 0.113541 0.119263 0.128147 0.132807 0.132496 0.134583 0.138491 0.138572 0.135822 0.132661 0.134947 0.135639 0.138946 0.145078 0.148822 0.153078 0.153149 0.143045 0.126218 0.113301 0.0989419 0.0877922 0.0835005 0.0790364 0.0758305 0.0706533 0.0676844 0.0636047 0.059691 0.0566238 0.0530729 0.0484204 0.0457912 0.0435196 0.0392716 0.0342951 0.0308945 0.0278329 0.0259913 0.023723 0.021454 0.0203369 0.0196525 0.0180664 0.017259 0.0171359 0.0174025 0.0175139 0.0169814 0.0162691 0.0155446 0.0145344 0.0137942 0.0131407 0.0126493 0.0125826 0.012667 0.0126295 0.0124402 0.0122078 0.0118066 0.0110228 0.0110338 0.0126981 0.014631 0.0163586 0.0189651 0.0227335 0.0296593
275.5375 0.00025 0.0986518 0.154226 0.260364 0.305844 0.310992 0.294516 0.263884 0.253568 0.243934 0.225466 0.216077 0.215909 0.200984 0.185929 0.181801 0.174746 0.163905 0.156193 0.144774 0.132028 0.124881 0.124248 0.125776 0.138332 0.141856 0.139123 0.128921 0.118575 0.113589 0.114782 0.112435 0.113885 0.11954 0.128365 0.133301 0.132755 0.134388 0.138889 0.139065 0.135914 0.132925 0.135025 0.135568 0.1387 0.145105 0.149413 0.153649 0.15309 0.142768 0.125834 0.112999 0.0989679 0.0880264 0.0838631 0.0792932 0.0761361 0.070899 0.0678709 0.0638535 0.0599566 0.0568133 0.0532327 0.0485496 0.0457571 0.0434816 0.0392724 0.0343645 0.0309802 0.0279082 0.0260147 0.0237485 0.021436 0.0203314 0.0196951 0.0181521 0.0172937 0.0171164 0.0173926 0.0175134 0.0169714 0.0162559 0.0155429 0.0145394 0.0138012 0.0131501 0.0126364 0.0125592 0.0126483 0.0126068 0.0124212 0.0122067 0.01182 0.0110323 0.0110324 0.0126986 0.0146326 0.0163533 0.0189536 0.0227166 0.0296362
275.54 0.00025 0.0984731 0.153904 0.260332 0.304435 0.30981 0.294757 0.264942 0.254714 0.244671 0.22634 0.215793 0.216034 0.202397 0.186934 0.182013 0.175313 0.164752 0.156665 0.144864 0.132192 0.125013 0.124177 0.125705 0.138114 0.141636 0.139139 0.129218 0.118676 0.11358 0.114793 0.112616 0.114238 0.119799 0.128554 0.133796 0.133044 0.134196 0.139258 0.139513 0.136018 0.133158 0.135114 0.135539 0.138526 0.145126 0.150002 0.154247 0.15298 0.142443 0.125461 0.112699 0.098983 0.088267 0.0841957 0.0795024 0.0764726 0.0711899 0.0680526 0.0641022 0.0602141 0.0569969 0.0533811 0.0486958 0.045722 0.0434273 0.0392696 0.0344343 0.0310669 0.0279834 0.0260369 0.0237777 0.0214169 0.0203215 0.0197322 0.0182374 0.0173305 0.0170982 0.0173821 0.0175131 0.0169614 0.016243 0.0155408 0.0145441 0.0138081 0.0131592 0.0126242 0.0125359 0.0126292 0.0125843 0.0124025 0.0122053 0.011833 0.011042 0.0110313 0.0126993 0.0146341 0.016348 0.0189422 0.0226998 0.0296132
275.5425 0.00025 0.0983371 0.153667 0.260354 0.302939 0.308595 0.295034 0.266108 0.255857 0.245396 0.227287 0.215679 0.216036 0.203791 0.188002 0.18225 0.175809 0.165667 0.157178 0.144949 0.132344 0.125175 0.124126 0.125675 0.137892 0.141379 0.139133 0.12951 0.118791 0.113552 0.114817 0.112831 0.114593 0.120044 0.128716 0.134285 0.133358 0.134026 0.139597 0.139895 0.136139 0.133363 0.135211 0.135544 0.138424 0.145148 0.15059 0.154863 0.152819 0.142067 0.125104 0.112406 0.0989917 0.0885172 0.0845009 0.0796648 0.0768236 0.0715318 0.0682305 0.0643493 0.0604643 0.0571752 0.0535158 0.0488558 0.0456899 0.0433558 0.0392633 0.0345054 0.0311553 0.0280591 0.026058 0.0238107 0.0213976 0.0203074 0.0197636 0.0183218 0.0173689 0.0170812 0.0173711 0.0175129 0.0169513 0.0162302 0.0155383 0.0145485 0.0138151 0.0131681 0.0126128 0.0125127 0.0126096 0.0125619 0.0123843 0.0122034 0.0118455 0.0110518 0.0110306 0.0127001 0.0146356 0.0163428 0.018931 0.0226831 0.0295904
275.545 0.00025 0.0982508 0.153525 0.260444 0.301378 0.30737 0.295345 0.267354 0.256941 0.2461 0.228269 0.215731 0.215925 0.205145 0.189132 0.182519 0.176223 0.166628 0.157733 0.145025 0.132478 0.125366 0.124088 0.125683 0.137677 0.141089 0.139102 0.129797 0.11892 0.113509 0.114855 0.113079 0.114951 0.120272 0.128849 0.134761 0.133686 0.133893 0.139905 0.140193 0.136281 0.13354 0.135317 0.13558 0.138401 0.14518 0.151171 0.155485 0.152613 0.141636 0.124764 0.112125 0.098995 0.088778 0.0847821 0.0797875 0.0771754 0.0719271 0.0684122 0.0645899 0.0607089 0.057346 0.053638 0.049025 0.0456648 0.0432676 0.0392523 0.0345779 0.0312453 0.0281353 0.0260775 0.0238471 0.0213794 0.0202895 0.0197895 0.0184048 0.0174092 0.0170658 0.0173597 0.0175128 0.0169411 0.0162175 0.0155356 0.0145527 0.013822 0.0131766 0.012602 0.0124897 0.0125895 0.0125396 0.0123665 0.0122012 0.0118575 0.0110616 0.0110304 0.0127011 0.0146371 0.0163376 0.01892 0.0226666 0.0295677
275.5475 0.00025 0.0982137 0.15349 0.2606 0.299783 0.306165 0.295726 0.268674 0.257951 0.246775 0.229264 0.215957 0.21572 0.206442 0.190323 0.182839 0.176566 0.16762 0.158339 0.145094 0.132596 0.125584 0.124063 0.125724 0.137479 0.140773 0.139043 0.130075 0.11906 0.11345 0.114909 0.113364 0.115311 0.120487 0.128955 0.135222 0.134024 0.133815 0.140188 0.140392 0.136442 0.1337 0.135423 0.135644 0.138446 0.145226 0.151748 0.1561 0.152367 0.141148 0.124446 0.111858 0.0989895 0.0890507 0.0850397 0.0798801 0.0775121 0.0723719 0.0686079 0.064821 0.0609507 0.057512 0.0537474 0.0491997 0.04565 0.043163 0.0392366 0.0346531 0.0313381 0.0282123 0.0260955 0.0238858 0.0213628 0.020268 0.0198095 0.0184858 0.017451 0.0170519 0.0173479 0.0175129 0.0169308 0.0162049 0.0155326 0.0145566 0.0138288 0.0131848 0.012592 0.012467 0.012569 0.0125174 0.0123492 0.0121986 0.0118689 0.0110715 0.0110305 0.0127022 0.0146386 0.0163325 0.0189092 0.0226501 0.0295451
275.55 0.00025 0.0982241 0.153554 0.260833 0.298224 0.305006 0.296169 0.270042 0.258844 0.247393 0.230258 0.216329 0.215432 0.207659 0.191568 0.183217 0.176851 0.168622 0.158994 0.145151 0.132694 0.125824 0.124048 0.125791 0.137306 0.140431 0.138952 0.130342 0.119206 0.113381 0.114983 0.113686 0.115668 0.120692 0.129034 0.135662 0.134363 0.133798 0.14045 0.140486 0.136617 0.133852 0.135532 0.13573 0.138559 0.145295 0.152317 0.156698 0.152085 0.140604 0.124152 0.11161 0.0989725 0.0893349 0.0852762 0.0799523 0.0778236 0.0728552 0.0688294 0.0650372 0.06119 0.0576725 0.053845 0.0493743 0.0456465 0.0430448 0.0392151 0.0347305 0.0314333 0.0282905 0.0261125 0.023926 0.0213488 0.0202429 0.0198238 0.0185643 0.0174942 0.0170395 0.0173356 0.017513 0.0169204 0.0161923 0.0155294 0.0145602 0.0138357 0.0131926 0.0125827 0.0124446 0.012548 0.0124953 0.0123324 0.0121957 0.0118797 0.0110814 0.011031 0.0127035 0.0146401 0.0163275 0.0188986 0.0226338 0.0295227
275.5525 0.00025 0.0982918 0.153726 0.261135 0.296717 0.303928 0.29667 0.271427 0.259627 0.247944 0.231232 0.216824 0.215072 0.208775 0.192863 0.183652 0.177092 0.169619 0.159704 0.145197 0.132775 0.126081 0.124046 0.125877 0.137164 0.140073 0.138826 0.130597 0.119353 0.113309 0.115076 0.114042 0.116025 0.12089 0.129092 0.136073 0.1347 0.133853 0.140695 0.140466 0.136795 0.13401 0.135641 0.135843 0.138729 0.145396 0.152881 0.157271 0.151769 0.140003 0.123881 0.111391 0.0989426 0.0896264 0.0854935 0.0800159 0.0781053 0.0733621 0.0690916 0.0652382 0.0614252 0.0578287 0.0539334 0.049545 0.045656 0.0429155 0.0391869 0.0348106 0.0315315 0.0283705 0.0261291 0.0239658 0.0213382 0.0202146 0.0198324 0.0186399 0.0175385 0.0170289 0.017323 0.0175132 0.0169099 0.0161797 0.0155261 0.0145635 0.0138425 0.0131999 0.012574 0.0124225 0.0125265 0.0124733 0.012316 0.0121924 0.0118899 0.0110914 0.011032 0.0127049 0.0146415 0.0163225 0.0188882 0.0226177 0.0295004
275.555 0.00025 0.0984128 0.154005 0.261498 0.295321 0.302961 0.297221 0.272796 0.260299 0.248425 0.232159 0.217396 0.214665 0.209773 0.194203 0.184151 0.17731 0.170592 0.160472 0.145235 0.13284 0.126348 0.124061 0.12598 0.137053 0.139706 0.138663 0.130836 0.119499 0.11324 0.115193 0.114432 0.116378 0.121085 0.129128 0.136445 0.135035 0.133981 0.140927 0.140331 0.136961 0.134186 0.135745 0.13598 0.138942 0.145538 0.15344 0.157809 0.151424 0.139351 0.123631 0.111207 0.0988972 0.0899165 0.0856968 0.0800808 0.078356 0.0738721 0.069404 0.0654239 0.0616553 0.057982 0.0540139 0.0497085 0.045678 0.0427797 0.0391528 0.0348938 0.0316323 0.0284527 0.0261462 0.0240052 0.021332 0.0201838 0.0198354 0.0187122 0.0175839 0.0170201 0.0173102 0.0175135 0.0168995 0.0161671 0.0155227 0.0145666 0.0138494 0.0132068 0.012566 0.0124009 0.0125046 0.0124514 0.0123001 0.0121888 0.0118995 0.0111013 0.0110333 0.0127065 0.0146428 0.0163176 0.0188779 0.0226016 0.0294782
275.5575 0.00025 0.0985923 0.15439 0.261933 0.294078 0.30211 0.297789 0.27412 0.260855 0.24884 0.233042 0.218019 0.214226 0.210637 0.195582 0.184716 0.177514 0.17153 0.16129 0.145267 0.132892 0.126615 0.124096 0.126096 0.136972 0.139338 0.138463 0.131061 0.11964 0.113182 0.115335 0.114851 0.116729 0.121284 0.129145 0.136768 0.13537 0.134181 0.141149 0.140089 0.137102 0.134388 0.135847 0.13615 0.139188 0.145725 0.153989 0.158308 0.151044 0.138652 0.123393 0.111066 0.0988421 0.0901984 0.085891 0.080156 0.0785804 0.0743684 0.0697719 0.0656016 0.0618764 0.0581326 0.0540887 0.0498609 0.0457107 0.0426405 0.0391123 0.034979 0.0317355 0.0285376 0.026165 0.0240427 0.0213301 0.0201506 0.0198331 0.0187804 0.0176299 0.0170131 0.0172971 0.0175137 0.016889 0.0161545 0.0155192 0.0145695 0.0138562 0.0132133 0.0125586 0.0123799 0.0124823 0.0124296 0.0122848 0.0121849 0.0119085 0.0111113 0.0110351 0.0127082 0.0146442 0.0163127 0.0188678 0.0225857 0.0294561
275.56 0.00025 0.0988243 0.154885 0.262443 0.293036 0.301386 0.298343 0.275393 0.26133 0.249201 0.23387 0.218658 0.21377 0.211361 0.196978 0.185348 0.177718 0.172423 0.162155 0.145304 0.132933 0.126872 0.124156 0.126225 0.136919 0.138974 0.138223 0.131264 0.119768 0.113141 0.115501 0.115293 0.117081 0.12149 0.129142 0.137034 0.135711 0.134448 0.141362 0.139749 0.137199 0.134619 0.135947 0.136352 0.139453 0.14596 0.154527 0.158764 0.150634 0.137914 0.12316 0.110978 0.0987838 0.0904559 0.0860819 0.0802472 0.0787871 0.0748333 0.0701928 0.06578 0.0620839 0.0582815 0.0541599 0.0499998 0.0457519 0.0425022 0.0390655 0.0350665 0.0318411 0.0286256 0.0261867 0.0240779 0.0213328 0.0201158 0.0198255 0.0188444 0.0176765 0.0170082 0.0172841 0.0175139 0.0168787 0.0161418 0.0155157 0.014572 0.0138631 0.0132192 0.0125518 0.0123594 0.0124596 0.0124078 0.0122699 0.0121807 0.0119167 0.0111212 0.0110372 0.01271 0.0146454 0.0163079 0.0188579 0.0225699 0.0294341
275.5625 0.00025 0.0991094 0.155505 0.263058 0.292233 0.300785 0.29886 0.276602 0.261734 0.249513 0.234616 0.219283 0.213308 0.211929 0.198366 0.186049 0.17793 0.173262 0.163055 0.145354 0.132964 0.127112 0.124245 0.126363 0.136887 0.138625 0.137948 0.131448 0.119881 0.113127 0.115692 0.115754 0.117436 0.12171 0.129122 0.137235 0.136061 0.134778 0.14156 0.139327 0.137242 0.134879 0.136043 0.136591 0.139731 0.146249 0.155055 0.159172 0.150194 0.137149 0.122917 0.110945 0.098731 0.0906746 0.0862736 0.080359 0.0789843 0.0752563 0.0706594 0.0659713 0.0622749 0.0584287 0.0542284 0.0501244 0.0457982 0.0423677 0.039014 0.035155 0.0319488 0.0287172 0.026212 0.0241102 0.0213399 0.0200798 0.0198129 0.0189037 0.0177231 0.0170052 0.0172709 0.017514 0.0168684 0.0161289 0.0155123 0.0145744 0.0138701 0.0132247 0.0125456 0.0123394 0.0124366 0.0123861 0.0122555 0.0121763 0.0119243 0.0111311 0.0110397 0.0127119 0.0146466 0.0163032 0.0188482 0.0225542 0.0294123
275.565 0.00025 0.0994412 0.156236 0.263793 0.291692 0.300308 0.299316 0.277752 0.26209 0.249812 0.235272 0.219878 0.212857 0.212349 0.19973 0.186817 0.178162 0.174046 0.16398 0.145426 0.132993 0.12733 0.12437 0.126509 0.136873 0.138296 0.137638 0.131607 0.119974 0.11315 0.11591 0.116227 0.117796 0.12195 0.129082 0.137366 0.136422 0.135168 0.141741 0.138837 0.137219 0.135165 0.136145 0.13687 0.140019 0.146591 0.15557 0.15953 0.14973 0.136371 0.122654 0.110972 0.0986992 0.0908418 0.0864661 0.0804912 0.0791807 0.0756328 0.0711598 0.0661899 0.0624464 0.0585738 0.0542963 0.0502343 0.0458465 0.0422407 0.0389587 0.0352434 0.0320578 0.0288117 0.0262421 0.0241393 0.0213508 0.0200433 0.0197953 0.018958 0.0177696 0.0170042 0.0172577 0.0175139 0.0168583 0.0161159 0.0155089 0.0145766 0.013877 0.0132297 0.0125399 0.0123201 0.0124133 0.0123644 0.0122417 0.0121716 0.0119313 0.011141 0.0110427 0.012714 0.0146478 0.0162985 0.0188387 0.0225386 0.0293905
275.5675 0.00025 0.0998116 0.157093 0.264668 0.291435 0.299938 0.299668 0.278831 0.262418 0.250123 0.235813 0.220431 0.212424 0.21263 0.201048 0.187651 0.178427 0.174772 0.164917 0.145527 0.133018 0.127514 0.124532 0.126665 0.136873 0.137993 0.137298 0.13174 0.120045 0.113218 0.116152 0.116709 0.118164 0.122213 0.129023 0.137428 0.136796 0.135611 0.141894 0.138301 0.137124 0.135471 0.136255 0.137188 0.140315 0.146977 0.156073 0.159829 0.149249 0.13559 0.122359 0.111051 0.098702 0.0909479 0.0866557 0.0806446 0.0793817 0.0759648 0.0716764 0.0664461 0.0625969 0.0587149 0.0543647 0.0503303 0.0458938 0.0421223 0.0389017 0.0353312 0.0321682 0.0289091 0.0262786 0.0241655 0.0213649 0.0200068 0.0197731 0.019007 0.0178155 0.0170053 0.0172445 0.0175136 0.0168482 0.0161026 0.0155055 0.0145785 0.0138839 0.0132343 0.0125346 0.0123015 0.0123896 0.0123427 0.0122283 0.0121667 0.0119375 0.0111508 0.011046 0.0127162 0.0146489 0.0162939 0.0188293 0.0225232 0.0293689
275.57 0.00025 0.100223 0.158071 0.265725 0.291456 0.299663 0.299871 0.279841 0.262749 0.250472 0.236219 0.220929 0.212022 0.212782 0.202297 0.188538 0.178732 0.175444 0.16585 0.145667 0.13305 0.127664 0.124733 0.126833 0.136879 0.13772 0.13693 0.131843 0.120091 0.11334 0.116416 0.117194 0.118541 0.1225 0.128943 0.137419 0.137181 0.136104 0.142018 0.137738 0.136954 0.135782 0.136379 0.137544 0.140622 0.147402 0.15656 0.160063 0.148754 0.134815 0.122029 0.111175 0.0987536 0.0909932 0.0868337 0.0808201 0.0795878 0.0762582 0.0721909 0.0667487 0.0627299 0.0588487 0.0544325 0.0504151 0.0459369 0.0420145 0.0388447 0.0354172 0.0322801 0.0290095 0.0263225 0.024189 0.0213822 0.0199713 0.0197467 0.0190505 0.0178605 0.0170084 0.0172316 0.0175132 0.0168384 0.0160892 0.0155021 0.0145802 0.0138908 0.0132384 0.0125297 0.0122836 0.0123658 0.0123211 0.0122153 0.0121615 0.011943 0.0111605 0.0110497 0.0127185 0.0146499 0.0162894 0.0188202 0.0225079 0.0293473
275.5725 0.00025 0.100662 0.159162 0.266977 0.291735 0.299476 0.299912 0.280781 0.263116 0.250852 0.236468 0.221359 0.211659 0.212824 0.203454 0.189471 0.179077 0.176066 0.166761 0.145854 0.133094 0.127779 0.124971 0.127013 0.136891 0.137481 0.136542 0.131914 0.120112 0.113522 0.116699 0.117682 0.118928 0.122815 0.128844 0.137347 0.137572 0.136643 0.142102 0.137167 0.136713 0.136088 0.136523 0.137933 0.140947 0.147863 0.157036 0.160221 0.148254 0.134055 0.121659 0.111326 0.0988657 0.0909836 0.0869885 0.0810218 0.0797981 0.0765253 0.0726874 0.0671017 0.0628537 0.0589723 0.0545017 0.0504885 0.0459722 0.0419188 0.0387898 0.0355009 0.0323931 0.0291125 0.0263749 0.0242105 0.0214019 0.0199367 0.0197162 0.0190881 0.0179042 0.0170136 0.017219 0.0175125 0.0168289 0.0160756 0.0154988 0.0145819 0.0138979 0.0132421 0.0125251 0.0122665 0.0123416 0.0122995 0.0122029 0.0121562 0.0119478 0.01117 0.0110538 0.0127209 0.0146508 0.0162849 0.0188111 0.0224926 0.0293258
275.575 0.00025 0.101126 0.160368 0.268432 0.292262 0.299355 0.299772 0.281655 0.263551 0.251271 0.236561 0.221723 0.211346 0.212791 0.204512 0.190431 0.179468 0.176646 0.167636 0.146096 0.133156 0.127856 0.12524 0.127208 0.136904 0.137276 0.136138 0.131947 0.120107 0.113769 0.116999 0.118169 0.119327 0.123153 0.128728 0.137218 0.137961 0.137218 0.142142 0.136598 0.136404 0.136372 0.136687 0.138348 0.141298 0.148357 0.157499 0.1603 0.147754 0.133319 0.121252 0.111485 0.0990472 0.0909381 0.0871054 0.081248 0.0800064 0.0767775 0.0731534 0.0675018 0.0629758 0.0590818 0.0545704 0.0505534 0.0459973 0.0418349 0.0387385 0.0355817 0.0325068 0.0292177 0.0264361 0.0242311 0.0214232 0.0199036 0.0196821 0.0191197 0.0179461 0.0170207 0.0172066 0.0175116 0.0168195 0.0160619 0.0154955 0.0145834 0.0139048 0.0132453 0.0125209 0.0122501 0.0123173 0.0122779 0.0121909 0.0121506 0.0119518 0.0111795 0.0110583 0.0127234 0.0146517 0.0162805 0.0188023 0.0224775 0.0293044
275.5775 0.00025 0.101607 0.161663 0.270076 0.293027 0.299314 0.299454 0.282451 0.264062 0.251723 0.236501 0.222006 0.211097 0.212723 0.205458 0.191403 0.179903 0.177188 0.168456 0.146389 0.133243 0.127897 0.125531 0.127422 0.13692 0.137105 0.135727 0.131939 0.120081 0.114084 0.117316 0.118661 0.11974 0.12351 0.128602 0.137042 0.138345 0.137823 0.142141 0.136047 0.136042 0.136625 0.136877 0.138784 0.141677 0.148871 0.157942 0.160296 0.147256 0.132613 0.120818 0.11163 0.0992983 0.0908777 0.0871679 0.081498 0.0802047 0.0770264 0.0735831 0.0679421 0.06311 0.059176 0.0546381 0.050613 0.0460118 0.0417633 0.0386925 0.0356585 0.0326212 0.0293254 0.0265067 0.024252 0.0214459 0.0198727 0.0196451 0.0191454 0.0179861 0.0170297 0.0171948 0.0175103 0.0168105 0.0160479 0.0154922 0.0145848 0.0139118 0.0132483 0.0125169 0.0122346 0.012293 0.0122563 0.0121793 0.012145 0.0119551 0.0111889 0.0110632 0.0127261 0.0146525 0.0162761 0.0187937 0.0224625 0.0292831