275.5025 0.00025 0.00645869 0.0317341 0.0793059 0.123398 0.139914 0.16108 0.164517 0.166757 0.159829 0.156001 0.151551 0.143626 0.140352 0.136997 0.132602 0.12802 0.123378 0.118835 0.115573 0.118657 0.115398 0.114427 0.111352 0.108153 0.106428 0.105332 0.105973 0.107757 0.112338 0.11592 0.116596 0.115669 0.113161 0.113652 0.117015 0.119552 0.123322 0.125963 0.127394 0.128035 0.128736 0.129462 0.131417 0.13146 0.13055 0.127617 0.124661 0.121104 0.118004 0.114714 0.110309 0.105899 0.102553 0.0989472 0.0953332 0.0902275 0.0846054 0.0786592 0.0731876 0.0684367 0.0641481 0.059413 0.0543821 0.0499579 0.0453548 0.0419295 0.0393526 0.0373495 0.0349181 0.0315662 0.028721 0.026055 0.0237615 0.0222776 0.0212112 0.0203538 0.0197859 0.0189598 0.0178867 0.0170669 0.0162184 0.0155427 0.0150109 0.0145507 0.0142193 0.013758 0.0132234 0.012621 0.0118794 0.0110992 0.0101814 0.00925842 0.00828309 0.00728652 0.00614828 0.00499147 0.00379256 0.0025856 0.00133163 0.000262284
275.505 0.00025 0.00643764 0.0317625 0.0793522 0.123279 0.139673 0.160975 0.165186 0.167628 0.160738 0.156701 0.152259 0.144089 0.140494 0.136706 0.13245 0.127893 0.123348 0.118951 0.115654 0.118679 0.115634 0.114828 0.111715 0.108316 0.106521 0.105234 0.105973 0.10767 0.112255 0.115864 0.11652 0.115755 0.113326 0.113819 0.117129 0.119779 0.123635 0.126515 0.127872 0.128479 0.129098 0.129873 0.131851 0.13173 0.130711 0.127843 0.124789 0.121299 0.118314 0.115254 0.110692 0.106158 0.10279 0.0991362 0.0954944 0.0904533 0.0849159 0.0789471 0.0734343 0.0685893 0.0643309 0.0596445 0.0545207 0.0501216 0.0455655 0.0421161 0.0395116 0.0374963 0.0350962 0.0317356 0.0288829 0.0262121 0.0238662 0.0223353 0.0212451 0.0203776 0.0198133 0.018997 0.0179187 0.0170864 0.0162332 0.0155595 0.01503 0.0145686 0.0142382 0.0137833 0.0132467 0.0126387 0.0118967 0.011115 0.0101945 0.00926792 0.0082877 0.00728824 0.00614787 0.00499055 0.00379115 0.00258353 0.00133105 0.000261984
275.5075 0.00025 0.00641495 0.0318122 0.0793891 0.123219 0.139498 0.160828 0.165907 0.168447 0.161683 0.157436 0.15294 0.144544 0.14069 0.136434 0.132291 0.12776 0.123303 0.119065 0.115744 0.118676 0.115884 0.115228 0.112088 0.108487 0.10663 0.105159 0.105989 0.107587 0.112171 0.1158 0.116415 0.115796 0.113529 0.113997 0.117235 0.120038 0.123932 0.12702 0.128373 0.128887 0.129472 0.130294 0.132286 0.132012 0.130851 0.12807 0.124925 0.121493 0.118614 0.11579 0.111108 0.106442 0.103038 0.099332 0.0956557 0.0906551 0.0852037 0.079228 0.0736877 0.0687463 0.0645029 0.0598781 0.054665 0.0502707 0.0457716 0.042309 0.0396742 0.0376399 0.035273 0.031907 0.0290436 0.0263706 0.0239751 0.0223956 0.0212805 0.020402 0.0198408 0.0190338 0.0179515 0.0171066 0.0162483 0.0155762 0.0150493 0.0145867 0.014257 0.0138086 0.0132703 0.0126567 0.0119142 0.0111309 0.0102078 0.00927761 0.00829245 0.00729005 0.00614754 0.00498971 0.00378982 0.00258152 0.00133048 0.000261688
275.51 0.00025 0.00639078 0.031892 0.0794239 0.123233 0.139416 0.160636 0.166672 0.169213 0.162691 0.158215 0.153592 0.144981 0.140917 0.136174 0.132124 0.127616 0.123239 0.119166 0.115852 0.118655 0.116147 0.115631 0.112475 0.108675 0.10675 0.105111 0.106023 0.107507 0.112089 0.115725 0.116278 0.115795 0.113765 0.114185 0.117339 0.120318 0.124215 0.12747 0.128886 0.129263 0.129848 0.130721 0.132718 0.132306 0.130972 0.128296 0.125071 0.121689 0.118907 0.116312 0.111557 0.106752 0.1033 0.0995363 0.0958197 0.0908393 0.0854715 0.0795018 0.0739458 0.0689082 0.064662 0.0601087 0.054817 0.050408 0.0459709 0.0425059 0.0398406 0.0377804 0.0354475 0.0320812 0.0292032 0.0265302 0.0240877 0.0224586 0.0213172 0.0204271 0.0198685 0.0190704 0.0179851 0.0171276 0.0162639 0.0155934 0.0150689 0.014605 0.0142756 0.013834 0.0132942 0.0126749 0.0119318 0.0111468 0.0102213 0.00928748 0.00829729 0.00729195 0.00614729 0.00498897 0.00378859 0.00257954 0.00132994 0.000261393
275.5125 0.00025 0.00636529 0.0319988 0.0794467 0.123326 0.139449 0.16042 0.167466 0.169956 0.163766 0.159031 0.154209 0.145408 0.14117 0.135927 0.131947 0.127462 0.123164 0.119255 0.115981 0.118615 0.116414 0.116034 0.112864 0.108881 0.106875 0.10509 0.106073 0.107435 0.112014 0.115638 0.116111 0.115757 0.114027 0.114385 0.117453 0.120614 0.124491 0.127864 0.129399 0.129621 0.130229 0.131164 0.133146 0.13262 0.131077 0.128519 0.125228 0.121886 0.119199 0.116815 0.112038 0.107092 0.103576 0.0997497 0.0959878 0.0910067 0.0857172 0.0797647 0.0742059 0.0690788 0.0648111 0.0603325 0.0549801 0.050539 0.0461622 0.0427044 0.0400104 0.0379186 0.0356193 0.0322578 0.0293617 0.0266903 0.0242039 0.0225244 0.0213554 0.0204529 0.0198963 0.0191067 0.0180193 0.0171494 0.0162798 0.0156106 0.0150886 0.0146235 0.0142941 0.0138595 0.0133184 0.0126934 0.0119496 0.0111626 0.010235 0.00929757 0.00830232 0.00729398 0.00614715 0.00498832 0.00378744 0.00257762 0.00132943 0.000261101
275.515 0.00025 0.00633819 0.0321297 0.0794681 0.123496 0.139604 0.160162 0.168244 0.170686 0.164896 0.159901 0.154791 0.145839 0.141431 0.135703 0.131768 0.127284 0.123075 0.119325 0.116136 0.118567 0.116678 0.116438 0.113255 0.109111 0.107002 0.105102 0.106132 0.107373 0.111947 0.11554 0.115915 0.115693 0.114308 0.114595 0.117581 0.120916 0.124759 0.128207 0.129906 0.129974 0.130609 0.131613 0.133559 0.132952 0.131172 0.128734 0.125396 0.122085 0.119492 0.117293 0.112544 0.107466 0.103864 0.0999746 0.0961615 0.091164 0.0859412 0.0800124 0.0744627 0.069258 0.06495 0.0605462 0.0551546 0.0506671 0.0463443 0.0429021 0.0401837 0.0380548 0.0357885 0.0324371 0.0295199 0.0268506 0.0243235 0.0225932 0.0213949 0.0204793 0.0199243 0.0191428 0.0180542 0.0171721 0.0162962 0.0156282 0.0151085 0.0146422 0.0143124 0.0138849 0.0133429 0.0127121 0.0119675 0.0111785 0.010249 0.00930782 0.00830746 0.00729613 0.00614709 0.00498774 0.00378635 0.00257574 0.00132896 0.000260812
275.5175 0.00025 0.00630828 0.0322759 0.0794925 0.123727 0.139885 0.159868 0.168988 0.171421 0.166077 0.160836 0.155345 0.146287 0.141683 0.135509 0.131592 0.127085 0.122978 0.119374 0.116313 0.118516 0.116932 0.116836 0.113643 0.109366 0.107133 0.105144 0.1062 0.107328 0.11189 0.115426 0.115694 0.115608 0.114597 0.114814 0.11773 0.121219 0.125023 0.128506 0.130387 0.130327 0.130984 0.132075 0.133963 0.133307 0.13126 0.128933 0.125578 0.122287 0.119791 0.117747 0.113069 0.107881 0.104163 0.100213 0.0963406 0.0913116 0.086145 0.0802454 0.0747135 0.0694475 0.0650839 0.0607495 0.0553425 0.050797 0.046518 0.0430967 0.0403595 0.0381886 0.0359538 0.0326188 0.0296782 0.0270107 0.024446 0.022665 0.0214361 0.0205067 0.0199526 0.0191788 0.0180895 0.0171956 0.0163131 0.0156461 0.0151288 0.0146612 0.0143307 0.0139104 0.0133677 0.0127311 0.0119856 0.0111944 0.0102631 0.00931827 0.00831274 0.00729839 0.00614713 0.00498725 0.00378534 0.00257392 0.0013285 0.000260531
275.52 0.00025 0.00627602 0.0324331 0.0795245 0.124005 0.140306 0.159544 0.169687 0.172158 0.167289 0.161852 0.155876 0.146748 0.141895 0.135342 0.131424 0.126861 0.122874 0.119398 0.116507 0.118471 0.117175 0.117232 0.114026 0.109646 0.107267 0.10521 0.106274 0.107305 0.111844 0.115292 0.115448 0.115515 0.114886 0.115047 0.117905 0.121514 0.12528 0.128766 0.130832 0.130688 0.131349 0.132543 0.134352 0.133687 0.131352 0.129117 0.12578 0.122495 0.120095 0.118181 0.113601 0.108338 0.104471 0.100467 0.0965277 0.0914557 0.08633 0.0804629 0.0749546 0.0696486 0.0652139 0.0609388 0.0555403 0.0509318 0.0466845 0.0432859 0.0405374 0.038321 0.0361155 0.0328029 0.029837 0.0271706 0.0245713 0.02274 0.021479 0.0205348 0.0199811 0.0192146 0.0181254 0.0172199 0.0163303 0.0156641 0.0151491 0.0146804 0.0143487 0.0139357 0.0133928 0.0127505 0.0120038 0.0112102 0.0102774 0.00932883 0.00831813 0.00730072 0.00614722 0.00498684 0.00378442 0.00257215 0.00132806 0.000260249
275.5225 0.00025 0.00624279 0.0325954 0.0795759 0.124318 0.140851 0.159209 0.170344 0.172901 0.168513 0.16295 0.156411 0.147235 0.142057 0.135197 0.131267 0.126614 0.122764 0.119406 0.116712 0.118438 0.117399 0.11762 0.114402 0.10995 0.107404 0.1053 0.106349 0.10731 0.111806 0.115142 0.115184 0.115419 0.115164 0.115291 0.118113 0.121802 0.125534 0.128995 0.131232 0.131058 0.131705 0.133025 0.134726 0.134089 0.131451 0.129274 0.125997 0.122709 0.120408 0.118599 0.114129 0.108839 0.104794 0.100736 0.0967233 0.0916 0.0864972 0.0806653 0.075182 0.0698593 0.0653452 0.0611153 0.0557446 0.0510748 0.0468455 0.0434681 0.0407165 0.0384521 0.0362731 0.0329888 0.0299968 0.0273299 0.0246987 0.0228182 0.0215237 0.020564 0.0200098 0.0192503 0.0181616 0.0172452 0.0163481 0.0156824 0.0151697 0.0147 0.0143668 0.013961 0.0134181 0.01277 0.0120221 0.0112261 0.010292 0.00933956 0.00832365 0.00730317 0.00614742 0.00498652 0.00378359 0.00257041 0.00132765 0.00025997
275.525 0.00025 0.0062115 0.0327568 0.0796647 0.124653 0.141512 0.158895 0.170949 0.173619 0.169736 0.164111 0.156957 0.147741 0.142165 0.135073 0.131127 0.126345 0.122646 0.119395 0.116919 0.11842 0.117602 0.118 0.114771 0.110278 0.107547 0.105411 0.106425 0.107344 0.111775 0.114975 0.114908 0.115326 0.115418 0.11555 0.118357 0.122077 0.125786 0.129199 0.131571 0.131438 0.132052 0.133517 0.135084 0.134509 0.131561 0.129406 0.126228 0.122935 0.120726 0.119011 0.114642 0.109384 0.105135 0.101023 0.0969297 0.0917499 0.0866487 0.0808547 0.0753954 0.070079 0.0654779 0.0612787 0.0559515 0.0512298 0.0470048 0.043643 0.0408959 0.0385824 0.0364258 0.0331757 0.0301581 0.0274888 0.0248278 0.0228994 0.0215703 0.020594 0.0200387 0.019286 0.0181983 0.0172714 0.0163663 0.015701 0.0151906 0.0147199 0.0143848 0.0139862 0.0134435 0.0127899 0.0120406 0.011242 0.0103067 0.00935043 0.00832929 0.00730572 0.00614768 0.00498627 0.00378283 0.00256874 0.00132726 0.000259701
275.5275 0.00025 0.00618297 0.0329109 0.0797782 0.125007 0.142274 0.158665 0.171508 0.174272 0.170945 0.165321 0.157536 0.148256 0.142217 0.134969 0.131007 0.126058 0.122511 0.119368 0.117121 0.11842 0.117783 0.118364 0.115132 0.110625 0.107696 0.105538 0.106501 0.107409 0.111746 0.114797 0.114626 0.115239 0.115638 0.115822 0.118636 0.122339 0.126038 0.129388 0.131845 0.131828 0.132397 0.134019 0.135424 0.134937 0.131689 0.129517 0.126473 0.123177 0.121046 0.119426 0.115136 0.109962 0.105498 0.101326 0.0971464 0.0919045 0.0867866 0.0810359 0.0755949 0.0703053 0.0656145 0.0614304 0.0561561 0.0513965 0.0471656 0.0438098 0.0410734 0.0387112 0.036573 0.0333628 0.0303206 0.0276476 0.0249584 0.0229838 0.0216188 0.0206252 0.0200679 0.0193216 0.018235 0.0172983 0.0163853 0.0157199 0.0152116 0.0147402 0.0144027 0.0140112 0.0134692 0.01281 0.0120593 0.0112578 0.0103216 0.00936148 0.00833512 0.0073084 0.00614804 0.00498611 0.00378215 0.0025671 0.00132689 0.00025943
275.53 0.00025 0.00615839 0.0330558 0.0799237 0.125382 0.143104 0.158565 0.171997 0.174834 0.172142 0.166561 0.158166 0.148778 0.14222 0.134881 0.130903 0.125763 0.122362 0.119333 0.117305 0.11844 0.117943 0.118711 0.115483 0.110994 0.107855 0.10568 0.106578 0.107502 0.111721 0.114613 0.114346 0.115166 0.115818 0.116104 0.118948 0.12259 0.126298 0.129568 0.132055 0.132222 0.132742 0.134527 0.135741 0.135366 0.131837 0.129614 0.126724 0.123439 0.121363 0.119849 0.115611 0.110562 0.105889 0.101645 0.0973744 0.0920655 0.086915 0.08121 0.0757786 0.0705341 0.0657538 0.0615725 0.0563553 0.0515763 0.0473317 0.0439693 0.0412481 0.0388394 0.0367153 0.0335492 0.0304843 0.0278066 0.0250903 0.0230713 0.0216695 0.0206575 0.0200971 0.0193573 0.018272 0.0173262 0.0164048 0.0157391 0.0152329 0.0147608 0.0144208 0.014036 0.0134951 0.0128305 0.0120781 0.0112737 0.0103366 0.00937266 0.00834106 0.00731117 0.00614845 0.00498601 0.00378154 0.0025655 0.00132655 0.000259161
275.5325 0.00025 0.00613703 0.0331859 0.0800885 0.125772 0.143998 0.158648 0.172404 0.175282 0.173317 0.167805 0.15885 0.149288 0.142172 0.134811 0.130814 0.125459 0.122201 0.119299 0.117466 0.118482 0.118088 0.119033 0.115818 0.111383 0.108027 0.105835 0.106655 0.107624 0.111698 0.114423 0.114077 0.11511 0.115956 0.116396 0.119294 0.122828 0.126559 0.129746 0.132203 0.132613 0.133089 0.135034 0.136045 0.13578 0.132011 0.129702 0.126973 0.123726 0.121675 0.120283 0.116075 0.111174 0.106313 0.10198 0.0976154 0.0922329 0.0870342 0.0813775 0.0759486 0.0707622 0.0658967 0.0617105 0.0565485 0.0517668 0.047506 0.0441235 0.041418 0.0389664 0.036852 0.0337343 0.0306486 0.0279656 0.0252229 0.0231617 0.0217222 0.0206909 0.0201265 0.0193931 0.0183091 0.0173548 0.016425 0.0157586 0.0152543 0.0147817 0.0144387 0.0140606 0.0135211 0.0128512 0.0120971 0.0112895 0.0103519 0.00938396 0.00834714 0.00731403 0.00614893 0.00498598 0.00378101 0.00256395 0.00132623 0.000258897
275.535 0.00025 0.0061194 0.0332973 0.08028 0.126167 0.144907 0.158919 0.172695 0.175592 0.174459 0.169039 0.159592 0.149795 0.142088 0.134764 0.130736 0.125153 0.122025 0.119273 0.117602 0.11854 0.118221 0.119332 0.116137 0.111789 0.10821 0.106 0.106737 0.107769 0.111677 0.114229 0.113825 0.115071 0.116044 0.116695 0.119663 0.123056 0.12682 0.129924 0.132298 0.132995 0.13344 0.135535 0.136342 0.136163 0.13221 0.129784 0.127208 0.124045 0.12198 0.120725 0.116535 0.111779 0.106769 0.102329 0.0978716 0.0924083 0.0871492 0.081539 0.0761069 0.0709878 0.0660426 0.0618469 0.0567341 0.0519674 0.0476912 0.0442739 0.0415833 0.0390921 0.0369832 0.033917 0.0308135 0.0281252 0.0253561 0.0232549 0.0217771 0.0207256 0.0201561 0.0194289 0.0183462 0.0173843 0.0164459 0.0157784 0.0152759 0.014803 0.0144568 0.014085 0.0135472 0.0128722 0.0121162 0.0113053 0.0103672 0.0093954 0.00835335 0.00731699 0.00614949 0.00498604 0.00378055 0.00256244 0.00132594 0.000258635
275.5375 0.00025 0.00610355 0.0333839 0.0804872 0.12659 0.145835 0.159354 0.17285 0.175775 0.175546 0.17024 0.160394 0.150307 0.141968 0.134738 0.130671 0.124845 0.121836 0.119258 0.117711 0.118607 0.118346 0.119604 0.116432 0.112206 0.108407 0.106175 0.106823 0.107935 0.111658 0.114033 0.1136 0.115052 0.116089 0.116997 0.120048 0.123278 0.127075 0.130103 0.132354 0.133363 0.133802 0.136019 0.136643 0.136509 0.132445 0.129867 0.127425 0.124395 0.122275 0.121166 0.117002 0.11237 0.107255 0.102694 0.0981437 0.09259 0.0872619 0.0816956 0.0762576 0.0712095 0.0661911 0.0619834 0.0569101 0.0521739 0.0478894 0.0444231 0.0417425 0.0392147 0.0371095 0.0340973 0.030979 0.0282853 0.0254897 0.0233507 0.0218345 0.0207618 0.020186 0.0194649 0.0183833 0.0174147 0.0164676 0.0157986 0.0152978 0.0148245 0.014475 0.0141091 0.0135734 0.0128937 0.0121356 0.0113211 0.0103827 0.00940696 0.00835972 0.00732008 0.00615013 0.00498615 0.00378012 0.00256097 0.00132565 0.000258375
275.54 0.00025 0.00609015 0.0334467 0.0807052 0.127012 0.146776 0.159927 0.172854 0.175827 0.17657 0.17141 0.161242 0.150825 0.141822 0.134728 0.130612 0.124541 0.121632 0.119255 0.117793 0.118679 0.118473 0.119852 0.116704 0.112635 0.108617 0.106359 0.10692 0.108116 0.111641 0.113838 0.113409 0.11505 0.116095 0.117302 0.120437 0.123499 0.127318 0.13029 0.132382 0.133711 0.134175 0.136485 0.136952 0.136804 0.132708 0.129957 0.127618 0.124772 0.122565 0.121604 0.117484 0.112942 0.107765 0.103076 0.0984362 0.0927817 0.0873759 0.0818496 0.0764033 0.0714281 0.0663408 0.0621216 0.0570768 0.0523832 0.0481012 0.0445728 0.041896 0.0393345 0.0372307 0.0342739 0.0311442 0.0284457 0.0256237 0.0234489 0.0218943 0.0207993 0.0202161 0.0195011 0.0184204 0.0174457 0.0164902 0.0158192 0.0153199 0.0148464 0.0144933 0.0141329 0.0135997 0.0129154 0.0121552 0.0113369 0.0103984 0.00941863 0.00836623 0.00732326 0.00615085 0.00498633 0.00377979 0.00255956 0.0013254 0.000258118
275.5425 0.00025 0.00607853 0.0334887 0.0809258 0.127449 0.147721 0.160544 0.172715 0.175742 0.177484 0.172539 0.162126 0.15137 0.14167 0.134723 0.130562 0.12425 0.12142 0.119265 0.117856 0.118751 0.118602 0.12008 0.116947 0.113067 0.10884 0.106549 0.107024 0.108306 0.111626 0.113648 0.113251 0.115061 0.116072 0.117603 0.120822 0.123725 0.127544 0.130483 0.132396 0.134033 0.13456 0.136924 0.137277 0.137046 0.132999 0.130067 0.127786 0.125173 0.122859 0.122034 0.117991 0.113498 0.108292 0.103475 0.098747 0.092985 0.0874946 0.0820015 0.076546 0.0716414 0.0664905 0.0622631 0.0572355 0.052592 0.0483274 0.0447267 0.042044 0.0394505 0.0373462 0.0344467 0.031309 0.0286067 0.0257584 0.0235497 0.0219565 0.0208382 0.0202464 0.0195376 0.0184575 0.0174775 0.0165136 0.0158402 0.0153422 0.0148687 0.0145118 0.0141565 0.013626 0.0129375 0.0121749 0.0113527 0.0104141 0.0094304 0.00837286 0.00732653 0.00615163 0.00498656 0.00377953 0.00255819 0.00132516 0.00025786
275.545 0.00025 0.00607019 0.0335056 0.0811495 0.127902 0.148671 0.161145 0.172461 0.175542 0.178272 0.173624 0.163035 0.151947 0.141516 0.134724 0.130516 0.123975 0.121201 0.119287 0.117907 0.118817 0.118734 0.120284 0.117159 0.113497 0.109078 0.106751 0.107145 0.108506 0.111614 0.113467 0.113132 0.115085 0.116031 0.117893 0.121192 0.123964 0.127748 0.130678 0.132406 0.134329 0.134952 0.137331 0.137619 0.137237 0.133308 0.130198 0.12793 0.125586 0.123161 0.122447 0.118519 0.114041 0.108824 0.103892 0.0990753 0.0932041 0.0876186 0.0821528 0.076687 0.0718504 0.066639 0.0624101 0.0573888 0.0527983 0.0485669 0.0448867 0.0421868 0.0395633 0.0374556 0.0346148 0.0314719 0.0287671 0.0258932 0.0236525 0.0220215 0.020879 0.0202772 0.0195743 0.0184945 0.01751 0.016538 0.0158615 0.0153647 0.0148912 0.0145306 0.0141799 0.0136524 0.0129599 0.012195 0.0113686 0.01043 0.00944232 0.00837965 0.00732992 0.00615248 0.00498686 0.00377933 0.00255685 0.00132493 0.000257606
275.5475 0.00025 0.00606422 0.0335061 0.0813831 0.128378 0.149599 0.161643 0.172119 0.17523 0.178936 0.174657 0.163936 0.152571 0.141389 0.134722 0.130473 0.123729 0.120985 0.119317 0.117956 0.118872 0.118871 0.120472 0.117339 0.113914 0.109327 0.106962 0.107278 0.108707 0.111601 0.1133 0.113048 0.115121 0.115982 0.118164 0.121537 0.124217 0.127932 0.130877 0.132429 0.134595 0.135345 0.137703 0.137978 0.137385 0.133618 0.130358 0.128052 0.126004 0.12348 0.12284 0.119067 0.114585 0.109353 0.104325 0.0994185 0.0934417 0.0877506 0.0823047 0.0768306 0.0720574 0.0667855 0.0625604 0.0575386 0.0530006 0.0488167 0.045055 0.0423245 0.0396721 0.0375578 0.0347783 0.0316331 0.0289272 0.0260289 0.0237573 0.0220891 0.0209214 0.0203082 0.0196115 0.0185315 0.017543 0.0165633 0.0158832 0.0153875 0.0149139 0.0145495 0.0142029 0.0136788 0.0129827 0.0122151 0.0113843 0.010446 0.00945432 0.00838657 0.00733342 0.00615342 0.00498724 0.00377918 0.00255556 0.00132471 0.000257353
275.55 0.00025 0.00605964 0.0334965 0.081641 0.128896 0.150472 0.161979 0.171724 0.174824 0.179482 0.175638 0.164816 0.153238 0.141307 0.13472 0.130431 0.123513 0.120773 0.119346 0.118012 0.118916 0.119016 0.120645 0.117489 0.114312 0.109585 0.107182 0.107429 0.108908 0.111587 0.113149 0.112997 0.115169 0.115941 0.118411 0.121855 0.124486 0.128098 0.131075 0.132478 0.134832 0.135732 0.138046 0.138348 0.1375 0.133922 0.130552 0.128163 0.126413 0.12382 0.123209 0.119626 0.11514 0.109875 0.104772 0.0997713 0.0936993 0.0878923 0.0824583 0.0769796 0.0722618 0.0669294 0.062715 0.0576879 0.0531964 0.0490749 0.0452338 0.0424587 0.0397778 0.037652 0.0349366 0.0317919 0.0290856 0.0261647 0.023864 0.0221591 0.0209655 0.0203392 0.0196487 0.0185682 0.0175766 0.0165897 0.0159054 0.0154106 0.014937 0.0145689 0.0142257 0.0137052 0.0130058 0.0122356 0.0114002 0.0104621 0.00946643 0.00839362 0.00733697 0.00615439 0.00498767 0.00377911 0.00255431 0.00132452 0.000257109
275.5525 0.00025 0.00605668 0.0334763 0.0819155 0.129439 0.15126 0.162136 0.171307 0.174353 0.179925 0.176539 0.16565 0.153949 0.141298 0.134732 0.130386 0.123333 0.120574 0.119374 0.118084 0.118949 0.119167 0.120802 0.117618 0.114689 0.109859 0.107415 0.107599 0.109111 0.11157 0.113022 0.112973 0.115227 0.11592 0.11863 0.122137 0.124764 0.128257 0.13127 0.132557 0.135038 0.136106 0.138355 0.138718 0.137595 0.134203 0.130787 0.12827 0.126804 0.12419 0.123558 0.120186 0.115714 0.110386 0.105231 0.10013 0.0939792 0.0880465 0.082615 0.0771358 0.072465 0.0670698 0.0628729 0.0578388 0.0533858 0.0493376 0.0454242 0.0425905 0.0398814 0.0377391 0.0350893 0.0319485 0.0292423 0.026301 0.0239725 0.0222319 0.0210118 0.0203709 0.0196864 0.0186049 0.0176107 0.0166169 0.015928 0.0154338 0.0149603 0.0145886 0.0142482 0.0137314 0.0130291 0.0122562 0.011416 0.0104783 0.00947866 0.00840082 0.00734065 0.00615544 0.00498815 0.00377908 0.00255309 0.00132434 0.000256864
275.555 0.00025 0.00605596 0.0334638 0.0822123 0.130015 0.151963 0.162123 0.170892 0.173825 0.18026 0.177343 0.166445 0.154691 0.141375 0.134767 0.130328 0.123191 0.120399 0.119396 0.118173 0.118971 0.119323 0.120945 0.117731 0.115033 0.110139 0.107657 0.107786 0.109318 0.11155 0.112919 0.11297 0.115296 0.11593 0.118814 0.122382 0.125045 0.12841 0.131453 0.132671 0.135218 0.136465 0.138638 0.139087 0.137684 0.134447 0.131055 0.128387 0.127164 0.124587 0.123888 0.120738 0.11631 0.11089 0.105697 0.10049 0.09428 0.0882181 0.0827748 0.0772986 0.0726691 0.0672071 0.0630313 0.0579926 0.0535683 0.0496009 0.0456269 0.0427209 0.0399823 0.037819 0.0352351 0.0321027 0.0293961 0.0264376 0.0240828 0.0223075 0.0210599 0.0204027 0.0197243 0.0186415 0.0176451 0.0166452 0.0159511 0.0154574 0.0149838 0.0146086 0.0142704 0.0137576 0.0130528 0.012277 0.0114319 0.0104945 0.009491 0.00840817 0.00734444 0.00615656 0.00498869 0.00377914 0.00255192 0.00132419 0.000256625
275.5575 0.00025 0.00605768 0.0334569 0.0825416 0.130598 0.152557 0.161966 0.170487 0.173244 0.180504 0.178037 0.167211 0.155452 0.141543 0.134833 0.130253 0.123098 0.120261 0.119408 0.118286 0.118993 0.11948 0.121071 0.117828 0.115341 0.110427 0.107914 0.107992 0.10953 0.111525 0.112842 0.112987 0.115375 0.115974 0.118961 0.122592 0.125323 0.128568 0.13162 0.132827 0.135384 0.136804 0.138893 0.139445 0.137785 0.134647 0.131348 0.128528 0.127493 0.125012 0.124206 0.121267 0.116924 0.111392 0.106166 0.100848 0.0945982 0.0884121 0.0829381 0.0774679 0.0728754 0.0673425 0.0631895 0.0581515 0.0537464 0.0498613 0.0458427 0.0428517 0.0400807 0.0378933 0.0353736 0.0322552 0.0295466 0.0265741 0.0241949 0.0223856 0.0211102 0.020435 0.0197625 0.0186781 0.0176799 0.0166746 0.0159746 0.0154811 0.0150074 0.014629 0.0142924 0.0137836 0.0130767 0.0122981 0.0114478 0.0105109 0.0095034 0.00841563 0.00734831 0.00615771 0.00498927 0.00377924 0.00255077 0.00132406 0.000256385
275.56 0.00025 0.00606091 0.033467 0.0828994 0.131171 0.153046 0.161717 0.1701 0.172646 0.180673 0.178607 0.167948 0.156214 0.14182 0.134944 0.130155 0.12305 0.120165 0.11941 0.11842 0.119014 0.119637 0.121181 0.117918 0.115606 0.110715 0.108184 0.108214 0.109751 0.111495 0.112785 0.113016 0.115462 0.116054 0.119075 0.12277 0.12559 0.128732 0.131771 0.133021 0.135543 0.137121 0.139119 0.139781 0.137906 0.134805 0.131656 0.1287 0.127785 0.125455 0.12452 0.121763 0.117549 0.111901 0.106635 0.101206 0.0949312 0.0886334 0.0831076 0.0776431 0.0730864 0.0674785 0.0633464 0.058316 0.0539221 0.050116 0.0460696 0.0429851 0.0401767 0.0379623 0.0355032 0.0324053 0.029693 0.0267096 0.0243084 0.0224664 0.0211627 0.0204677 0.0198009 0.0187147 0.0177151 0.016705 0.0159986 0.0155051 0.0150313 0.0146498 0.0143141 0.0138095 0.0131009 0.0123194 0.0114638 0.0105272 0.0095159 0.00842326 0.0073523 0.00615894 0.00498991 0.0037794 0.00254967 0.00132393 0.000256148
275.5625 0.00025 0.0060658 0.0335062 0.0832976 0.131726 0.153405 0.161403 0.169723 0.172042 0.180749 0.179046 0.168679 0.156954 0.142197 0.13512 0.130039 0.123049 0.120124 0.119403 0.118576 0.119045 0.119793 0.12127 0.118001 0.115829 0.111005 0.108471 0.108452 0.109981 0.111465 0.112748 0.113059 0.11556 0.116173 0.119159 0.122917 0.125838 0.128904 0.131903 0.133247 0.135699 0.137414 0.139322 0.140088 0.138052 0.134921 0.131964 0.128907 0.128045 0.125904 0.124844 0.122226 0.11818 0.112426 0.107102 0.101564 0.0952719 0.0888839 0.0832861 0.0778245 0.0733031 0.0676158 0.0635 0.0584861 0.0540977 0.0503625 0.0463057 0.0431224 0.0402702 0.038027 0.0356234 0.0325528 0.0298357 0.026844 0.0244238 0.0225499 0.0212175 0.020501 0.0198395 0.0187513 0.0177504 0.0167363 0.0160231 0.0155294 0.0150553 0.014671 0.0143356 0.0138351 0.0131253 0.0123409 0.0114798 0.0105436 0.00952852 0.00843102 0.00735641 0.00616024 0.0049906 0.00377962 0.00254861 0.00132382 0.000255914
275.565 0.00025 0.00607157 0.033562 0.0837066 0.132234 0.153637 0.16105 0.169344 0.171447 0.18072 0.179355 0.169417 0.157654 0.142666 0.135377 0.129908 0.123089 0.120149 0.119395 0.118745 0.119088 0.119941 0.121337 0.118082 0.116001 0.111286 0.108774 0.108703 0.110222 0.111439 0.112728 0.11312 0.115669 0.116321 0.119216 0.123032 0.126064 0.129081 0.132023 0.133498 0.135861 0.137687 0.139504 0.140358 0.138226 0.135005 0.132258 0.129158 0.128278 0.126346 0.125185 0.122651 0.118798 0.112977 0.107563 0.101924 0.0956141 0.0891649 0.0834776 0.0780113 0.073527 0.0677589 0.0636503 0.0586624 0.0542745 0.0506009 0.0465489 0.0432664 0.0403625 0.038088 0.0357345 0.032697 0.0299747 0.0269766 0.0245408 0.0226362 0.0212746 0.0205348 0.0198783 0.0187879 0.017786 0.0167688 0.016048 0.015554 0.0150795 0.0146927 0.0143569 0.0138605 0.0131499 0.0123626 0.0114959 0.01056 0.00954121 0.00843892 0.00736061 0.00616159 0.00499133 0.00377989 0.00254758 0.00132372 0.000255683
275.5675 0.00025 0.00607806 0.0336434 0.0841187 0.132689 0.153733 0.160689 0.16896 0.170891 0.18057 0.179525 0.170163 0.158314 0.14321 0.135729 0.129777 0.123164 0.120241 0.119399 0.118926 0.119151 0.120083 0.121384 0.118164 0.11613 0.111556 0.109097 0.108965 0.110468 0.111416 0.112713 0.113192 0.115793 0.116494 0.119256 0.123117 0.126265 0.12926 0.132132 0.133768 0.136033 0.137945 0.139664 0.140582 0.138433 0.13507 0.132529 0.129453 0.128498 0.126769 0.12555 0.123045 0.119394 0.113563 0.10802 0.102288 0.0959542 0.0894745 0.0836886 0.0782036 0.073757 0.0679113 0.0637962 0.0588428 0.0544525 0.0508301 0.0467948 0.043418 0.0404543 0.0381455 0.0358364 0.0328368 0.0301101 0.0271064 0.0246591 0.0227252 0.0213342 0.0205691 0.0199172 0.0188247 0.0178219 0.0168022 0.0160736 0.0155789 0.0151039 0.0147149 0.0143781 0.0138856 0.0131748 0.0123846 0.011512 0.0105764 0.009554 0.00844692 0.0073649 0.00616299 0.00499211 0.0037802 0.00254659 0.00132362 0.00025545
275.57 0.00025 0.00608395 0.0337472 0.0845097 0.133079 0.15372 0.160342 0.168554 0.170394 0.180287 0.179568 0.170909 0.158929 0.143807 0.136182 0.129659 0.123264 0.120404 0.119424 0.119112 0.119237 0.120215 0.121411 0.118249 0.116216 0.111815 0.109441 0.109243 0.110725 0.111404 0.112708 0.113286 0.115933 0.116685 0.119289 0.123174 0.126441 0.129435 0.132235 0.134049 0.136212 0.138186 0.139801 0.14075 0.138664 0.135128 0.132768 0.129785 0.128717 0.127163 0.125941 0.123418 0.119953 0.114185 0.108474 0.102659 0.0962936 0.0898084 0.0839221 0.0784023 0.073992 0.0680764 0.0639381 0.0590281 0.0546326 0.0510523 0.0470397 0.0435775 0.040546 0.0381998 0.0359299 0.0329714 0.0302425 0.0272328 0.0247783 0.0228167 0.0213965 0.0206043 0.0199561 0.0188614 0.0178577 0.0168365 0.0160997 0.015604 0.0151285 0.0147375 0.0143991 0.0139104 0.0131998 0.0124067 0.0115283 0.0105929 0.00956687 0.00845505 0.00736931 0.00616447 0.00499294 0.00378056 0.00254563 0.00132353 0.000255217
275.5725 0.00025 0.00609096 0.0338625 0.084861 0.133385 0.153596 0.160029 0.168121 0.169968 0.179855 0.179513 0.171653 0.159514 0.14443 0.136739 0.129573 0.123385 0.120646 0.119483 0.119297 0.119352 0.120343 0.121416 0.118335 0.116259 0.112052 0.109802 0.109531 0.110985 0.111402 0.112703 0.113396 0.116087 0.116887 0.119319 0.123202 0.126594 0.129601 0.132337 0.134341 0.136403 0.138418 0.139921 0.140868 0.13892 0.13519 0.132973 0.130139 0.128946 0.127524 0.126352 0.123782 0.120462 0.114833 0.108932 0.103035 0.0966324 0.0901587 0.0841822 0.0786093 0.0742282 0.068256 0.064076 0.0592165 0.0548147 0.0512679 0.0472802 0.0437458 0.0406394 0.0382514 0.0360148 0.0331001 0.030372 0.0273554 0.0248982 0.0229111 0.0214615 0.0206403 0.0199951 0.0188982 0.0178937 0.0168718 0.0161264 0.0156295 0.0151531 0.0147606 0.0144199 0.013935 0.013225 0.0124291 0.0115448 0.0106093 0.00957987 0.00846332 0.00737381 0.00616598 0.00499379 0.00378098 0.0025447 0.00132346 0.000254988
275.575 0.00025 0.00610029 0.0339783 0.0851731 0.133604 0.153368 0.159777 0.167655 0.169627 0.179277 0.179361 0.172376 0.160098 0.145064 0.137393 0.12953 0.12352 0.12096 0.119593 0.119486 0.119505 0.120462 0.121396 0.118421 0.11627 0.112271 0.110186 0.109833 0.111246 0.111411 0.112694 0.113524 0.116254 0.117094 0.119352 0.123206 0.126721 0.129754 0.132436 0.134634 0.136604 0.138641 0.14002 0.14093 0.13919 0.135265 0.133144 0.130504 0.129199 0.127855 0.12677 0.124152 0.120918 0.115501 0.1094 0.10341 0.0969763 0.0905166 0.0844712 0.0788285 0.0744649 0.0684541 0.064211 0.0594067 0.0549998 0.0514791 0.0475145 0.0439221 0.0407353 0.0383011 0.0360923 0.033223 0.0304988 0.0274741 0.0250181 0.0230081 0.0215292 0.0206772 0.0200342 0.0189351 0.0179297 0.016908 0.0161536 0.0156553 0.0151779 0.0147841 0.0144406 0.0139592 0.0132503 0.0124517 0.0115613 0.0106257 0.00959295 0.0084717 0.00737843 0.00616758 0.0049947 0.00378143 0.0025438 0.0013234 0.000254763
275.5775 0.00025 0.00611262 0.0340906 0.0854432 0.133728 0.15307 0.159584 0.167135 0.169369 0.178572 0.179116 0.173059 0.160688 0.145681 0.138121 0.12955 0.123677 0.121339 0.119759 0.119678 0.119698 0.120575 0.121357 0.118503 0.116254 0.112464 0.110586 0.110147 0.111504 0.111434 0.112683 0.113669 0.116426 0.117299 0.119392 0.123185 0.12683 0.129892 0.132533 0.134928 0.136817 0.13886 0.140098 0.140947 0.139471 0.135358 0.133288 0.130863 0.129484 0.128159 0.127179 0.12454 0.121318 0.116166 0.109885 0.103783 0.097334 0.0908764 0.0847914 0.0790639 0.0746996 0.0686714 0.0643443 0.0595995 0.0551889 0.051686 0.0477412 0.044105 0.040835 0.0383495 0.0361623 0.0333392 0.0306223 0.0275887 0.0251368 0.0231077 0.0215997 0.020715 0.0200732 0.0189722 0.0179657 0.016945 0.0161816 0.0156815 0.0152028 0.0148081 0.0144613 0.0139831 0.0132757 0.0124746 0.011578 0.0106421 0.00960616 0.00848021 0.00738318 0.00616925 0.00499564 0.00378191 0.00254295 0.00132334 0.000254536