260.5025 0.00025 2.87901 2.67806 2.61427 2.6875 2.8461 3.04616 3.09825 3.30431 3.37096 3.56688 3.50663 3.4426 3.20712 3.10055 3.01002 2.92345 2.95839 3.06991 2.91076 2.72345 2.69152 2.73745 2.84083 2.93489 2.93497 2.76425 2.78863 2.8151 2.79491 2.93044 3.11332 3.27542 3.36766 3.44908 3.75029 3.93726 3.92265 3.61207 3.28485 3.25607 3.23919 3.16888 3.18414 3.22396 3.32334 3.26964 3.19196 3.18049 3.22266 3.262 3.22688 3.25466 3.23537 3.34623 3.43329 3.53518 3.41944 3.3969 3.55584 3.50322 3.27236 3.15343 3.0335 2.97378 2.93943 2.8515 2.84557 2.85636 2.73958 2.58936 2.58933 2.63622 2.63193 2.61981 2.54 2.46014 2.40391 2.32509 2.27543 2.36318 2.42804 2.43713 2.47316 2.54576 2.65873 2.71525 2.84502 3.00151 3.00309 2.85845 2.74526 2.82519 2.98766 3.05945 3.174 3.1872 3.10405 3.33649 3.33734 3.02237
260.505 0.00025 2.88026 2.6702 2.61314 2.67537 2.83128 3.03156 3.09477 3.29358 3.3733 3.54646 3.51322 3.47444 3.22212 3.1023 3.0165 2.92808 2.94428 3.06191 2.91988 2.71389 2.67839 2.73593 2.8387 2.94042 2.93751 2.76691 2.79686 2.82164 2.79473 2.92819 3.09569 3.26035 3.36338 3.44277 3.73446 3.93413 3.9285 3.63062 3.26503 3.24339 3.2397 3.16363 3.17845 3.22409 3.32706 3.26868 3.18428 3.17016 3.22205 3.26546 3.22479 3.24054 3.23633 3.33784 3.42992 3.54749 3.43322 3.39296 3.5592 3.51232 3.27937 3.16833 3.04377 2.96906 2.93262 2.84194 2.84162 2.85797 2.74064 2.58496 2.58422 2.62858 2.63348 2.6236 2.5416 2.46259 2.4097 2.33265 2.28018 2.35879 2.42861 2.43423 2.47132 2.5489 2.65855 2.71014 2.8431 3.00055 3.00342 2.86659 2.75564 2.82624 2.98464 3.05479 3.17111 3.18881 3.11067 3.34691 3.34806 3.02569
260.5075 0.00025 2.88132 2.66225 2.61193 2.66466 2.81746 3.01614 3.09071 3.2824 3.3788 3.52747 3.51622 3.50549 3.23798 3.10117 3.02191 2.93471 2.93203 3.05227 2.92897 2.70526 2.66577 2.73491 2.83646 2.94241 2.94054 2.77256 2.80417 2.83059 2.79767 2.92445 3.07766 3.24419 3.35833 3.43717 3.71753 3.93078 3.93674 3.64051 3.25152 3.22733 3.24031 3.15994 3.17396 3.22557 3.33029 3.26746 3.17641 3.16037 3.22087 3.26857 3.223 3.22645 3.23666 3.32946 3.42742 3.55702 3.44611 3.38895 3.56378 3.5229 3.28499 3.18191 3.05559 2.96533 2.92545 2.83204 2.83736 2.85925 2.74066 2.58092 2.57951 2.62056 2.63448 2.62751 2.54311 2.46502 2.41571 2.34047 2.2861 2.35494 2.42871 2.43159 2.46989 2.55168 2.6579 2.70524 2.84099 2.99965 3.00363 2.87383 2.76731 2.82761 2.98245 3.04968 3.16797 3.19037 3.11756 3.3573 3.35895 3.02908
260.51 0.00025 2.88175 2.65445 2.6102 2.65586 2.80469 3.00086 3.08609 3.27082 3.38723 3.50951 3.51676 3.53376 3.25553 3.09696 3.02593 2.94311 2.92222 3.04213 2.93683 2.69795 2.65414 2.73404 2.83424 2.9408 2.94332 2.78159 2.81071 2.84102 2.80423 2.91937 3.05959 3.22687 3.35254 3.4319 3.6998 3.92623 3.94696 3.64449 3.24309 3.20882 3.24042 3.15809 3.17088 3.22831 3.33287 3.2659 3.16839 3.15148 3.21901 3.27125 3.22128 3.21274 3.23599 3.32137 3.42579 3.5639 3.45769 3.38489 3.56982 3.53532 3.28909 3.19396 3.06852 2.96267 2.91805 2.82203 2.83273 2.86017 2.73944 2.57728 2.57531 2.61216 2.63492 2.63146 2.54464 2.46742 2.42182 2.34852 2.29299 2.35176 2.42818 2.42937 2.46879 2.55406 2.65679 2.70057 2.83876 2.99861 3.00395 2.87996 2.78012 2.82938 2.98105 3.04427 3.16455 3.19192 3.12474 3.36767 3.36998 3.03257
260.5125 0.00025 2.88151 2.64664 2.60761 2.64952 2.79287 2.98592 3.0805 3.25899 3.39748 3.49278 3.51412 3.55913 3.27522 3.0899 3.02798 2.95235 2.91488 3.03211 2.94255 2.69225 2.64357 2.73256 2.83222 2.93567 2.9452 2.79398 2.81637 2.85243 2.81449 2.91328 3.04185 3.20884 3.34594 3.42664 3.68201 3.91983 3.95805 3.64665 3.23673 3.18949 3.23934 3.15813 3.16913 3.23237 3.33469 3.26393 3.16029 3.14351 3.21644 3.27334 3.21944 3.19979 3.2341 3.31382 3.42517 3.56862 3.46748 3.38098 3.57742 3.54948 3.29189 3.20421 3.08208 2.96103 2.9106 2.81208 2.82777 2.86066 2.73721 2.57391 2.57159 2.60341 2.63482 2.63534 2.54617 2.46984 2.42799 2.35681 2.30072 2.34941 2.42692 2.42773 2.46796 2.55599 2.65514 2.69616 2.83647 2.99729 3.00461 2.88494 2.79389 2.83173 2.98047 3.03872 3.16085 3.1934 3.1322 3.378 3.38116 3.03614
260.515 0.00025 2.88067 2.63856 2.60407 2.64556 2.78201 2.97189 3.07384 3.24699 3.40803 3.47869 3.50675 3.58297 3.29629 3.08067 3.0278 2.96119 2.90979 3.02293 2.94539 2.68871 2.63412 2.7301 2.83064 2.92734 2.94556 2.80943 2.82097 2.8647 2.82814 2.90658 3.02435 3.1909 3.33823 3.42109 3.66428 3.91112 3.96867 3.65151 3.22883 3.17125 3.23614 3.16035 3.16874 3.23769 3.3356 3.26134 3.15213 3.1366 3.2135 3.2749 3.21754 3.18779 3.23093 3.30698 3.42545 3.57139 3.47467 3.37737 3.58696 3.56546 3.29403 3.21266 3.09571 2.96045 2.90319 2.80245 2.82246 2.86044 2.73446 2.57047 2.56829 2.5944 2.63414 2.63908 2.54774 2.47237 2.43415 2.36541 2.30913 2.34797 2.42488 2.42677 2.46737 2.55742 2.65291 2.692 2.83417 2.99548 3.00568 2.8888 2.80826 2.83483 2.98061 3.03315 3.15689 3.19481 3.13997 3.38836 3.39244 3.03982
260.5175 0.00025 2.87919 2.63046 2.59942 2.64354 2.77203 2.95883 3.06592 3.23486 3.41695 3.46899 3.49496 3.60499 3.318 3.07044 3.02526 2.96882 2.90675 3.01496 2.945 2.68766 2.62537 2.72649 2.82963 2.91633 2.94372 2.82723 2.825 2.87748 2.84481 2.89986 3.00684 3.17371 3.32902 3.41495 3.64704 3.89987 3.97788 3.6627 3.21621 3.15569 3.2303 3.16481 3.1693 3.24409 3.33567 3.25798 3.14396 3.13072 3.21029 3.27584 3.21539 3.17678 3.2266 3.30084 3.42669 3.57286 3.47834 3.37411 3.59851 3.58293 3.29621 3.21893 3.10877 2.96085 2.89594 2.79328 2.81681 2.85959 2.73153 2.56667 2.56532 2.5853 2.6329 2.64263 2.54933 2.4751 2.44022 2.37431 2.31812 2.34751 2.42206 2.42652 2.46703 2.55838 2.6501 2.68809 2.83193 2.99317 3.00732 2.89176 2.82282 2.83885 2.98145 3.02771 3.15267 3.19616 3.14805 3.39872 3.40382 3.0436
260.52 0.00025 2.87716 2.62216 2.59356 2.64296 2.76288 2.94664 3.05665 3.22244 3.42275 3.46573 3.48162 3.62133 3.34138 3.06051 3.02067 2.97433 2.90543 3.00869 2.94108 2.68932 2.61642 2.72206 2.82902 2.90323 2.93901 2.84675 2.82951 2.89015 2.86407 2.89364 2.98899 3.15807 3.31794 3.4078 3.63042 3.88572 3.98529 3.68222 3.19744 3.14343 3.22147 3.17152 3.17089 3.25144 3.33494 3.25368 3.13609 3.12584 3.2069 3.2762 3.21294 3.16655 3.22132 3.29556 3.42895 3.57368 3.47766 3.37108 3.61228 3.60175 3.29921 3.22298 3.1208 2.96218 2.88896 2.78474 2.81094 2.85813 2.7285 2.56254 2.56246 2.57629 2.631 2.64594 2.5509 2.47807 2.44612 2.38351 2.32765 2.34805 2.41854 2.42691 2.46695 2.55883 2.64665 2.6844 2.82977 2.99023 3.00945 2.89403 2.83708 2.84398 2.98294 3.02246 3.14822 3.19739 3.15641 3.40911 3.41528 3.04751
260.5225 0.00025 2.8745 2.61348 2.58647 2.64349 2.75459 2.93549 3.04641 3.20962 3.42471 3.47 3.4697 3.62654 3.36931 3.05143 3.01475 2.97665 2.90556 3.00428 2.93369 2.69371 2.60711 2.71699 2.8284 2.88852 2.9313 2.86742 2.83531 2.90207 2.88538 2.88851 2.97064 3.14441 3.30503 3.39929 3.61468 3.86821 3.99026 3.70986 3.17331 3.13398 3.20996 3.18021 3.17327 3.25946 3.33344 3.24838 3.12869 3.12195 3.2035 3.27615 3.21039 3.15707 3.21532 3.29108 3.43224 3.57406 3.47221 3.36815 3.62815 3.62163 3.30364 3.22493 3.13144 2.96423 2.88232 2.77694 2.805 2.85612 2.72539 2.55833 2.55936 2.56754 2.62844 2.64898 2.55249 2.48133 2.45181 2.39297 2.33771 2.34957 2.41442 2.42783 2.46722 2.55878 2.64258 2.68085 2.82777 2.98671 3.01197 2.89595 2.85055 2.85044 2.98507 3.0175 3.14358 3.1985 3.1651 3.41956 3.42685 3.05152
260.525 0.00025 2.8712 2.60439 2.57864 2.64496 2.74773 2.92554 3.03574 3.19625 3.42318 3.4818 3.46024 3.61878 3.40303 3.0435 3.00858 2.97486 2.9072 3.00196 2.92382 2.7002 2.59769 2.71122 2.82738 2.87272 2.92105 2.88813 2.8429 2.91335 2.90801 2.88507 2.9516 3.13289 3.2905 3.38913 3.59987 3.84763 3.99263 3.74383 3.14641 3.12623 3.19706 3.19043 3.17627 3.26792 3.33145 3.24191 3.12213 3.11894 3.20005 3.27564 3.20782 3.14808 3.20878 3.28735 3.43665 3.57419 3.4619 3.36478 3.64604 3.64263 3.30977 3.22531 3.14024 2.96691 2.87597 2.76985 2.79914 2.8537 2.72231 2.55428 2.55575 2.55925 2.62516 2.65168 2.55405 2.48489 2.45732 2.40264 2.34834 2.35198 2.40983 2.42914 2.4679 2.55818 2.63789 2.67744 2.82598 2.98261 3.01472 2.89791 2.86285 2.85842 2.98783 3.01291 3.1388 3.19952 3.17406 3.43005 3.43852 3.05564
260.5275 0.00025 2.86717 2.59467 2.5705 2.64717 2.74259 2.91707 3.02521 3.18219 3.41932 3.49983 3.45282 3.60152 3.4396 3.03765 3.00298 2.9686 2.91017 3.00186 2.9129 2.70774 2.58909 2.7044 2.82541 2.85624 2.90911 2.90754 2.85246 2.92447 2.93095 2.88372 2.93216 3.12337 3.2748 3.37712 3.58595 3.8242 3.99181 3.78161 3.1203 3.11874 3.18394 3.20143 3.17984 3.27656 3.32898 3.23419 3.11663 3.11664 3.19652 3.27475 3.2053 3.13941 3.20175 3.2843 3.44226 3.57439 3.44753 3.36048 3.66543 3.66474 3.31758 3.22471 3.1468 2.97 2.86995 2.76346 2.79342 2.851 2.71939 2.5504 2.55157 2.55159 2.62123 2.65404 2.55569 2.48867 2.46268 2.41242 2.35956 2.35518 2.40494 2.43062 2.46909 2.55706 2.63262 2.67396 2.82434 2.97802 3.01745 2.90018 2.87355 2.86798 2.99118 3.00872 3.13386 3.20042 3.18331 3.44062 3.4503 3.05988
260.53 0.00025 2.86233 2.58469 2.56264 2.65002 2.73912 2.9103 3.01543 3.16749 3.41404 3.52156 3.44711 3.58064 3.4728 3.03571 2.99814 2.95855 2.9145 3.00343 2.90238 2.71538 2.58205 2.69653 2.82234 2.8396 2.89621 2.92429 2.86406 2.93579 2.95332 2.88487 2.91281 3.11536 3.25862 3.36345 3.57285 3.79848 3.98717 3.82033 3.09866 3.11066 3.17157 3.21248 3.1842 3.28517 3.326 3.22533 3.11256 3.11504 3.19287 3.27362 3.20294 3.13089 3.19427 3.28194 3.44896 3.5745 3.42988 3.35452 3.68557 3.6881 3.32726 3.22396 3.15086 2.97316 2.86424 2.75774 2.78785 2.84817 2.71675 2.54659 2.54693 2.54447 2.61672 2.65597 2.5574 2.49258 2.468 2.42214 2.37145 2.359 2.39995 2.43212 2.47087 2.5554 2.62687 2.67038 2.8229 2.97305 3.01992 2.90307 2.88248 2.87914 2.99519 3.00502 3.12882 3.20122 3.1928 3.45123 3.46215 3.06422
260.5325 0.00025 2.85678 2.57459 2.55567 2.65343 2.73682 2.90486 3.00687 3.15251 3.40782 3.5438 3.44331 3.56034 3.49702 3.04001 2.99377 2.94566 2.92015 3.00593 2.89329 2.72256 2.57661 2.68756 2.81813 2.82314 2.88264 2.9379 2.87754 2.94734 2.97437 2.88877 2.8942 3.10825 3.24268 3.34837 3.56023 3.77089 3.97811 3.85748 3.08413 3.10159 3.16038 3.22313 3.1893 3.29346 3.32231 3.21536 3.10997 3.11414 3.1891 3.27233 3.20079 3.12239 3.18645 3.28042 3.45688 3.57473 3.41021 3.34617 3.70557 3.71289 3.3388 3.22356 3.15247 2.97621 2.85875 2.75265 2.7824 2.84539 2.71456 2.54269 2.54209 2.53772 2.6119 2.65742 2.55922 2.49651 2.4733 2.4317 2.38405 2.3633 2.39507 2.43343 2.47334 2.55319 2.62076 2.66654 2.82159 2.96784 3.02182 2.90681 2.88961 2.89178 2.99989 3.00179 3.12368 3.20191 3.2025 3.46183 3.47408 3.06869
260.535 0.00025 2.85043 2.56455 2.54986 2.65759 2.73519 2.90002 2.99947 3.13775 3.39962 3.56391 3.4424 3.54132 3.50936 3.05209 2.98967 2.93175 2.92684 3.00825 2.88615 2.72886 2.57267 2.67784 2.81262 2.80689 2.86885 2.94852 2.89243 2.95912 2.9935 2.89526 2.87718 3.10143 3.22773 3.33208 3.5476 3.74189 3.96449 3.89112 3.07831 3.0921 3.1501 3.23294 3.19561 3.30151 3.31784 3.20458 3.10887 3.11398 3.18511 3.27097 3.19877 3.11385 3.17812 3.27955 3.46588 3.57494 3.38984 3.33491 3.72434 3.73919 3.35237 3.22368 3.15198 2.97892 2.85331 2.74819 2.77687 2.84277 2.71294 2.53859 2.53724 2.53115 2.60702 2.6583 2.56112 2.50041 2.47863 2.44091 2.39739 2.36787 2.39046 2.43443 2.47647 2.5505 2.61443 2.66235 2.82035 2.96253 3.02294 2.91152 2.89505 2.90572 3.0054 2.9991 3.11842 3.20247 3.21237 3.47243 3.48606 3.07328
260.5375 0.00025 2.84358 2.55495 2.54537 2.66246 2.73381 2.89485 2.99315 3.12441 3.38838 3.58013 3.44487 3.52316 3.50997 3.0718 2.9861 2.91814 2.93377 3.00983 2.88159 2.73423 2.57007 2.66791 2.80585 2.79064 2.85546 2.95651 2.90795 2.97115 3.01017 2.90406 2.86251 3.09428 3.21442 3.31523 3.53456 3.7116 3.94646 3.92023 3.08172 3.08322 3.14048 3.24132 3.20334 3.30893 3.31215 3.19335 3.109 3.11461 3.18071 3.26967 3.19684 3.1052 3.16925 3.27919 3.47582 3.57482 3.37014 3.32065 3.74073 3.76695 3.36802 3.22419 3.14998 2.98097 2.84771 2.7443 2.77111 2.84036 2.71201 2.53419 2.53236 2.52462 2.60235 2.65858 2.56311 2.5042 2.484 2.44973 2.41145 2.37268 2.38634 2.435 2.48032 2.5474 2.60801 2.65774 2.81907 2.95727 3.02304 2.91724 2.89901 2.92058 3.01179 2.99697 3.11311 3.20295 3.22237 3.48299 3.49809 3.078
260.54 0.00025 2.83658 2.54601 2.5424 2.66775 2.73255 2.88917 2.98704 3.11363 3.37294 3.59112 3.45043 3.50635 3.50082 3.09755 2.98409 2.90558 2.94026 3.01042 2.87985 2.73845 2.5691 2.6584 2.79763 2.77423 2.84285 2.96222 2.923 2.98346 3.02402 2.91481 2.85082 3.08638 3.20323 3.29847 3.5207 3.6804 3.92489 3.9445 3.09391 3.07584 3.13113 3.24836 3.21267 3.31547 3.30505 3.18211 3.11006 3.11601 3.17584 3.26848 3.19482 3.09641 3.15991 3.27919 3.48687 3.57427 3.35221 3.30361 3.75349 3.7961 3.38609 3.225 3.14729 2.98218 2.84172 2.74099 2.76508 2.83825 2.71171 2.52964 2.52743 2.51819 2.59806 2.6583 2.56518 2.50793 2.48939 2.45804 2.4262 2.3777 2.38285 2.43515 2.48476 2.544 2.6016 2.65272 2.81765 2.95224 3.02197 2.92388 2.90187 2.93596 3.0192 2.99548 3.10777 3.20331 3.23248 3.49351 3.51011 3.08284
260.5425 0.00025 2.82917 2.53798 2.54073 2.67287 2.73172 2.88337 2.98011 3.10602 3.35378 3.5961 3.45797 3.49223 3.4843 3.12596 2.98523 2.8948 2.94607 3.01048 2.88111 2.74121 2.57 2.64982 2.7879 2.75758 2.83111 2.966 2.93688 2.99605 3.03485 2.92713 2.84254 3.07773 3.19433 3.28252 3.50577 3.64859 3.90038 3.96365 3.1143 3.07099 3.12246 3.25357 3.22381 3.32118 3.29653 3.17126 3.11163 3.1183 3.17055 3.26743 3.19258 3.08741 3.15003 3.27921 3.49885 3.57319 3.33687 3.2845 3.76129 3.82624 3.40674 3.22566 3.14458 2.98249 2.83515 2.73816 2.75874 2.83649 2.71183 2.52532 2.52219 2.51197 2.59429 2.65753 2.56732 2.51155 2.49473 2.46578 2.44151 2.38298 2.3801 2.43492 2.48965 2.54053 2.59527 2.64732 2.81597 2.94757 3.01971 2.93131 2.90409 2.9514 3.02774 2.99467 3.10236 3.20353 3.24267 3.50395 3.52211 3.08782
260.545 0.00025 2.82148 2.53103 2.54028 2.67732 2.73113 2.87854 2.97154 3.10118 3.33275 3.59447 3.4662 3.48172 3.46313 3.15222 2.99121 2.88609 2.95117 3.01012 2.88517 2.74219 2.57298 2.64236 2.77654 2.74079 2.82029 2.96823 2.94917 3.00882 3.04269 2.94049 2.83781 3.06847 3.18777 3.26838 3.4896 3.61677 3.8738 3.97749 3.14226 3.06874 3.11457 3.25671 3.23645 3.32607 3.28641 3.16098 3.1133 3.12136 3.16488 3.26638 3.19005 3.07821 3.13957 3.27881 3.5115 3.57198 3.3246 3.26434 3.76297 3.85662 3.42983 3.22621 3.14227 2.98201 2.82802 2.73565 2.75217 2.83507 2.71212 2.52164 2.51632 2.50609 2.59098 2.65643 2.56953 2.51503 2.49997 2.47289 2.45722 2.38865 2.37815 2.4344 2.49471 2.53715 2.58905 2.64163 2.81386 2.94328 3.01624 2.93928 2.90607 2.96642 3.03749 2.99454 3.09698 3.20363 3.2529 3.51429 3.53404 3.09292
260.5475 0.00025 2.8137 2.52523 2.54065 2.6807 2.73084 2.87574 2.96091 3.0975 3.31198 3.5857 3.47406 3.47473 3.44012 3.17139 3.0032 2.87969 2.95597 3.00925 2.8916 2.74146 2.5776 2.63586 2.76368 2.72411 2.81025 2.96903 2.9601 3.02168 3.04755 2.95428 2.83665 3.05877 3.18328 3.25663 3.47229 3.58546 3.84565 3.98528 3.17714 3.06899 3.10799 3.25769 3.25005 3.3299 3.27467 3.15164 3.11489 3.12509 3.15908 3.26534 3.18724 3.06896 3.12858 3.27755 3.52459 3.57099 3.31549 3.24449 3.75784 3.88639 3.45536 3.22697 3.14059 2.9811 2.82016 2.7332 2.74556 2.83395 2.71232 2.51892 2.50967 2.50074 2.58806 2.6552 2.57185 2.51835 2.5051 2.47936 2.47312 2.39487 2.37701 2.43371 2.49966 2.53419 2.58292 2.63573 2.81129 2.93935 3.01164 2.94751 2.90833 2.98065 3.04852 2.99514 3.09164 3.2036 3.26314 3.52453 3.54586 3.09815
260.55 0.00025 2.80606 2.5206 2.54143 2.68256 2.73062 2.87553 2.9487 3.09293 3.29326 3.56944 3.48035 3.47019 3.41804 3.18045 3.02069 2.87607 2.96084 3.00767 2.89978 2.7395 2.58342 2.63052 2.74957 2.70758 2.80104 2.96847 2.97017 3.03427 3.04961 2.9679 2.83911 3.04889 3.18039 3.24775 3.45405 3.5552 3.81615 3.98579 3.21853 3.07175 3.10313 3.25624 3.2641 3.33292 3.26151 3.14308 3.11626 3.1293 3.15331 3.26403 3.18404 3.05978 3.11701 3.27486 3.53772 3.57086 3.30958 3.22625 3.74563 3.91444 3.48304 3.22845 3.13933 2.98015 2.81157 2.73059 2.73917 2.83306 2.7123 2.51721 2.50242 2.49589 2.58548 2.65405 2.57432 2.5215 2.51015 2.48514 2.48903 2.40185 2.37666 2.43304 2.50419 2.53189 2.57683 2.62977 2.80826 2.93576 3.00611 2.95571 2.91122 2.99377 3.06076 2.99653 3.08643 3.20342 3.27339 3.53462 3.55751 3.10349
260.5525 0.00025 2.79853 2.51684 2.54221 2.68291 2.7304 2.87808 2.93608 3.08624 3.27683 3.54635 3.48407 3.4674 3.39906 3.17921 3.04161 2.87607 2.96549 3.00569 2.90897 2.73691 2.59002 2.62637 2.73442 2.6913 2.79277 2.9666 2.97957 3.04608 3.04932 2.98074 2.84502 3.03919 3.17856 3.24203 3.43543 3.52671 3.78539 3.97781 3.26597 3.07724 3.10005 3.25255 3.27804 3.33533 3.24723 3.13521 3.1174 3.13376 3.14784 3.26236 3.18043 3.05094 3.1048 3.27062 3.5503 3.57232 3.30691 3.21076 3.72685 3.93925 3.51245 3.23125 3.13814 2.97977 2.80235 2.72759 2.73321 2.83226 2.71196 2.5164 2.49493 2.49132 2.58308 2.65312 2.57695 2.52449 2.51512 2.49022 2.50467 2.40976 2.37704 2.43248 2.50805 2.53053 2.57081 2.62384 2.80484 2.93231 2.99981 2.96356 2.91503 3.00561 3.07419 2.99875 3.08137 3.20309 3.28364 3.5446 3.569 3.10897
260.555 0.00025 2.79141 2.51408 2.5426 2.68206 2.72993 2.88269 2.9243 3.07745 3.26145 3.51786 3.48397 3.46664 3.38367 3.16994 3.06271 2.88084 2.9694 3.0042 2.91866 2.73417 2.5971 2.62317 2.71865 2.67534 2.78531 2.96363 2.98835 3.05673 3.04728 2.99223 2.85386 3.03009 3.17739 3.2394 3.4168 3.50021 3.75364 3.96036 3.31912 3.08597 3.0987 3.24732 3.29113 3.33728 3.23221 3.12787 3.11849 3.13808 3.14311 3.26015 3.17631 3.0427 3.09186 3.26459 3.56155 3.57607 3.30731 3.19864 3.70264 3.95917 3.54322 3.23611 3.13682 2.98034 2.79256 2.72401 2.72792 2.83141 2.71112 2.51633 2.4877 2.48682 2.58093 2.65252 2.5798 2.52738 2.52006 2.49464 2.5198 2.41871 2.37807 2.43213 2.51099 2.53026 2.5648 2.61799 2.80119 2.92883 2.99297 2.97073 2.92003 3.01616 3.08859 3.00183 3.07656 3.20259 3.2939 3.55447 3.5803 3.11456
260.5575 0.00025 2.78487 2.51245 2.54223 2.68024 2.72892 2.88877 2.9142 3.06758 3.24543 3.48549 3.47903 3.46829 3.37066 3.1559 3.08065 2.8916 2.97213 3.00446 2.92827 2.73141 2.60428 2.621 2.70244 2.65985 2.77844 2.96022 2.99626 3.06575 3.04433 3.00199 2.86501 3.02217 3.17656 3.23964 3.39863 3.47608 3.72127 3.93288 3.37734 3.09843 3.09911 3.24098 3.30273 3.33895 3.21665 3.12101 3.11973 3.1419 3.13938 3.2572 3.17169 3.03538 3.07823 3.25679 3.57067 3.58238 3.31087 3.19041 3.67454 3.97255 3.57473 3.24342 3.13517 2.982 2.78241 2.7198 2.72349 2.8305 2.70971 2.51697 2.48093 2.48224 2.57892 2.65227 2.58293 2.53024 2.52497 2.49842 2.53407 2.42876 2.37965 2.43208 2.5129 2.53116 2.55886 2.61227 2.79744 2.92507 2.98575 2.97699 2.92631 3.02547 3.10369 3.00578 3.07206 3.20195 3.30415 3.5642 3.59134 3.12028
260.56 0.00025 2.77895 2.51175 2.54105 2.67744 2.72721 2.89562 2.90597 3.05798 3.22751 3.45075 3.46885 3.47227 3.35803 3.14028 3.09289 2.90886 2.9736 3.00715 2.9374 2.72877 2.61124 2.62009 2.68576 2.64497 2.7718 2.95668 3.003 3.0731 3.0412 3.00977 2.87777 3.01601 3.17613 3.24231 3.3813 3.45455 3.68845 3.89579 3.43917 3.11525 3.10144 3.23383 3.31243 3.3403 3.20099 3.11429 3.12108 3.14503 3.13698 3.25346 3.16637 3.02912 3.06403 3.2472 3.57709 3.59174 3.31759 3.18617 3.64427 3.97819 3.60648 3.25344 3.13329 2.98471 2.77221 2.71504 2.71987 2.82948 2.70769 2.51823 2.47466 2.47775 2.57695 2.65229 2.58648 2.53319 2.52981 2.50164 2.54715 2.43993 2.38179 2.43235 2.51377 2.53317 2.55314 2.60671 2.79383 2.92083 2.97829 2.98208 2.93389 3.03374 3.11921 3.01066 3.06791 3.20114 3.31438 3.57379 3.60215 3.12613
260.5625 0.00025 2.77382 2.51201 2.53898 2.67347 2.7247 2.90281 2.89902 3.04948 3.20722 3.41477 3.45401 3.47742 3.34545 3.12527 3.09858 2.93165 2.97432 3.01233 2.94587 2.72635 2.61762 2.62046 2.66863 2.63078 2.76537 2.95295 3.00853 3.07892 3.03849 3.01553 2.8915 3.01197 3.17656 3.24712 3.36484 3.43577 3.65513 3.85017 3.50222 3.13721 3.10577 3.22571 3.31927 3.34133 3.18558 3.10771 3.12256 3.1474 3.13594 3.2487 3.16021 3.02404 3.04961 3.23587 3.58018 3.60419 3.32722 3.18567 3.61342 3.97517 3.63784 3.26625 3.13159 2.9882 2.76234 2.70982 2.71701 2.82836 2.70497 2.51998 2.46891 2.47359 2.57487 2.65245 2.59051 2.53628 2.53448 2.50445 2.55872 2.45217 2.38444 2.43296 2.51372 2.53613 2.54777 2.60124 2.79053 2.91605 2.97071 2.98595 2.94274 3.04122 3.13476 3.01647 3.06414 3.20016 3.3246 3.58327 3.61268 3.13207
260.565 0.00025 2.76933 2.51317 2.53625 2.66847 2.72139 2.91011 2.89306 3.0427 3.18501 3.37852 3.43562 3.4815 3.3344 3.11163 3.09806 2.9573 2.9753 3.01921 2.95381 2.72438 2.6231 2.62212 2.65153 2.61736 2.75922 2.94869 3.01288 3.08345 3.03669 3.01936 2.90565 3.01007 3.1782 3.25386 3.34932 3.41997 3.62166 3.79832 3.56322 3.16513 3.11187 3.21662 3.32367 3.34191 3.17107 3.10126 3.12408 3.14915 3.13637 3.24308 3.15323 3.02018 3.03539 3.22277 3.57965 3.61959 3.33972 3.18882 3.58333 3.96325 3.66778 3.2816 3.13046 2.99212 2.75301 2.70425 2.71476 2.82708 2.70159 2.52199 2.46358 2.46986 2.57258 2.65257 2.59514 2.53959 2.53893 2.50702 2.56844 2.46536 2.38765 2.4339 2.51292 2.53973 2.54304 2.59585 2.78771 2.91068 2.96292 2.98848 2.95265 3.04826 3.15003 3.02329 3.06079 3.19902 3.33478 3.59261 3.62291 3.1381
260.5675 0.00025 2.76534 2.51514 2.53316 2.66275 2.71738 2.91729 2.88803 3.038 3.16158 3.34289 3.4148 3.48178 3.3278 3.09929 3.09252 2.98256 2.97769 3.02666 2.96127 2.7231 2.62757 2.62502 2.63475 2.60467 2.75332 2.94388 3.01621 3.08716 3.03598 3.02155 2.91982 3.01022 3.18132 3.26241 3.33455 3.40707 3.58805 3.74293 3.61784 3.19972 3.11966 3.20693 3.32563 3.34173 3.15786 3.09484 3.12551 3.1504 3.13817 3.23665 3.14535 3.01746 3.02191 3.20779 3.57516 3.63782 3.35499 3.19522 3.55494 3.94279 3.6954 3.29929 3.13037 2.99621 2.74446 2.69863 2.713 2.82565 2.69775 2.52402 2.45878 2.46664 2.57015 2.65244 2.60047 2.54318 2.54322 2.50953 2.57608 2.47934 2.39149 2.4352 2.51158 2.54362 2.53918 2.59057 2.78543 2.90482 2.95482 2.98971 2.96341 3.05518 3.16465 3.03107 3.05791 3.19778 3.34496 3.60185 3.63284 3.14421
260.57 0.00025 2.76184 2.51756 2.52993 2.65662 2.71273 2.92396 2.88466 3.03556 3.13731 3.30863 3.39222 3.47602 3.32772 3.08845 3.08319 3.00472 2.98233 3.03372 2.96847 2.72262 2.63099 2.62879 2.61871 2.59262 2.74748 2.93874 3.01828 3.09048 3.03643 3.02235 2.93347 3.0123 3.1861 3.27266 3.3203 3.39717 3.55512 3.68705 3.66183 3.24143 3.12873 3.19719 3.32537 3.33999 3.14631 3.0885 3.1266 3.15143 3.14119 3.22943 3.13652 3.01578 3.00963 3.19075 3.56682 3.65858 3.373 3.20439 3.52889 3.9146 3.71982 3.31903 3.13157 3.00035 2.73673 2.69312 2.71171 2.82397 2.69371 2.5258 2.45454 2.46388 2.56763 2.65189 2.60646 2.54708 2.54745 2.51218 2.58153 2.49387 2.39606 2.43689 2.50996 2.54739 2.53649 2.58542 2.78375 2.89868 2.94623 2.98966 2.97471 3.06227 3.17837 3.03979 3.05546 3.19639 3.3551 3.61098 3.64249 3.1504
260.5725 0.00025 2.75875 2.51999 2.52686 2.65033 2.70743 2.92939 2.88367 3.0353 3.11262 3.27647 3.36844 3.46303 3.33441 3.07978 3.07106 3.0224 2.98943 3.04009 2.9755 2.72299 2.63361 2.6332 2.60418 2.58101 2.74142 2.93374 3.0189 3.09386 3.03794 3.02212 2.94616 3.01608 3.19264 3.28454 3.30646 3.38988 3.52314 3.63285 3.69175 3.29019 3.13894 3.18811 3.32313 3.33621 3.13691 3.0823 3.12716 3.15245 3.14526 3.22149 3.12689 3.01489 2.99912 3.17155 3.55472 3.68137 3.39368 3.21587 3.50548 3.87978 3.74013 3.34049 3.13411 3.00454 2.72991 2.68788 2.71083 2.82179 2.68975 2.52715 2.45079 2.46162 2.56518 2.65085 2.613 2.55135 2.55172 2.51502 2.58476 2.50864 2.40148 2.43895 2.5083 2.55068 2.5352 2.58046 2.78265 2.89251 2.93695 2.9884 2.98624 3.06983 3.191 3.04943 3.05351 3.19493 3.3652 3.62003 3.65181 3.15665
260.575 0.00025 2.75605 2.52254 2.52425 2.64407 2.70168 2.93294 2.88578 3.03693 3.08769 3.24661 3.34403 3.44304 3.34658 3.07414 3.05679 3.03551 2.99816 3.04575 2.98227 2.7241 2.63567 2.63781 2.59189 2.56951 2.73494 2.92944 3.01788 3.09743 3.04013 3.02134 2.95756 3.0214 3.20115 3.29794 3.29316 3.38477 3.49261 3.58216 3.70557 3.34463 3.15073 3.18035 3.31925 3.33002 3.13004 3.0763 3.12716 3.15355 3.15027 3.21281 3.11651 3.01474 2.99075 3.15035 3.53899 3.7057 3.41709 3.22927 3.48474 3.83964 3.75552 3.36335 3.13787 3.00901 2.72401 2.68303 2.71045 2.81899 2.68619 2.52798 2.44745 2.45991 2.56276 2.6493 2.61985 2.5561 2.5562 2.51807 2.58593 2.52328 2.40779 2.4414 2.50678 2.55316 2.53544 2.57576 2.7821 2.88661 2.92688 2.98602 2.99769 3.0781 3.20244 3.05991 3.0521 3.19343 3.37524 3.62901 3.6608 3.16293
260.5775 0.00025 2.75337 2.52485 2.52232 2.63808 2.69544 2.93423 2.89089 3.04012 3.06284 3.21872 3.3195 3.41777 3.36145 3.07272 3.04103 3.04459 3.00692 3.05098 2.9886 2.72594 2.63769 2.64238 2.58237 2.55796 2.72785 2.92618 3.01511 3.10126 3.04277 3.02042 2.96744 3.02775 3.21195 3.31248 3.2807 3.38112 3.46399 3.53582 3.70304 3.40239 3.16473 3.17415 3.31446 3.32109 3.12547 3.07056 3.12649 3.15482 3.15624 3.20329 3.10552 3.01515 2.98462 3.12733 3.51986 3.73104 3.44333 3.24415 3.46695 3.79556 3.76509 3.38721 3.1426 3.01394 2.71916 2.67856 2.71062 2.8154 2.68318 2.5283 2.44436 2.45881 2.56028 2.64733 2.62669 2.56148 2.56101 2.52132 2.58524 2.53741 2.41506 2.44429 2.50556 2.55466 2.53725 2.57146 2.78196 2.88121 2.91594 2.98254 3.00864 3.08719 3.21269 3.07117 3.05128 3.19193 3.38517 3.63787 3.66946 3.16925
260.58 0.00025 2.75064 2.5267 2.52112 2.63231 2.68878 2.93297 2.89806 3.04422 3.03879 3.19223 3.29519 3.38986 3.37519 3.07678 3.02451 3.05042 3.014 3.05597 2.99455 2.72851 2.6402 2.64673 2.57581 2.54664 2.71998 2.92372 3.01077 3.10504 3.04553 3.01969 2.97574 3.0346 3.2249 3.32741 3.2697 3.37812 3.43762 3.49427 3.68601 3.46016 3.18218 3.16969 3.30904 3.30983 3.12281 3.06536 3.12505 3.15628 3.16295 3.19288 3.09387 3.01604 2.98076 3.10315 3.49745 3.75671 3.47268 3.26025 3.45204 3.74911 3.76834 3.41174 3.14814 3.01949 2.71545 2.67438 2.71138 2.811 2.68075 2.52818 2.44145 2.45831 2.55774 2.64498 2.63334 2.56758 2.56624 2.52475 2.58307 2.55064 2.42329 2.44763 2.5047 2.55519 2.54055 2.56774 2.78218 2.87654 2.90425 2.97805 3.0188 3.09722 3.22185 3.08303 3.0511 3.19054 3.39498 3.64667 3.6778 3.17558
260.5825 0.00025 2.74795 2.52764 2.52072 2.62687 2.68206 2.92906 2.90632 3.04872 3.01617 3.16664 3.27142 3.36169 3.38374 3.08805 3.00847 3.05361 3.01775 3.06046 3.00032 2.73171 2.64354 2.65051 2.57181 2.53592 2.71124 2.9219 3.00538 3.1083 3.04829 3.01956 2.98249 3.04155 3.2396 3.34246 3.26065 3.37452 3.41399 3.45758 3.65795 3.51378 3.20398 3.16665 3.30359 3.29626 3.12158 3.0611 3.1228 3.15797 3.17029 3.1818 3.08146 3.01747 2.97883 3.07851 3.47197 3.78157 3.50531 3.27705 3.43991 3.70139 3.76495 3.43636 3.15433 3.02566 2.71323 2.67049 2.71265 2.80576 2.67884 2.52775 2.43876 2.45829 2.5551 2.64225 2.63963 2.57437 2.5719 2.52834 2.57978 2.56261 2.43244 2.45151 2.5043 2.55478 2.54506 2.56472 2.7826 2.87268 2.89195 2.97264 3.0278 3.10812 3.23007 3.09535 3.05158 3.18932 3.40464 3.65543 3.68582 3.18191
260.585 0.00025 2.74508 2.52769 2.5211 2.62157 2.67574 2.92248 2.91485 3.05279 2.99576 3.14162 3.24857 3.33454 3.38394 3.10744 2.99428 3.05449 3.01743 3.06367 3.00631 2.73547 2.64772 2.65361 2.57009 2.52634 2.70185 2.92039 2.9996 3.11057 3.0509 3.02029 2.98801 3.04851 3.25546 3.3572 3.25391 3.3693 3.3933 3.42549 3.62306 3.55899 3.23054 3.16524 3.29863 3.28126 3.12103 3.05802 3.11974 3.15998 3.17802 3.17031 3.0682 3.01957 2.97831 3.05433 3.44395 3.80453 3.54151 3.29443 3.43057 3.65354 3.7549 3.46042 3.16125 3.03226 2.71279 2.66688 2.7144 2.79971 2.67726 2.5271 2.4363 2.45863 2.55242 2.63913 2.64551 2.5818 2.57806 2.53214 2.57572 2.573 2.44235 2.45595 2.5044 2.55365 2.55045 2.5626 2.78308 2.86957 2.87926 2.9664 3.03529 3.11975 3.23758 3.10792 3.0528 3.18833 3.4141 3.66416 3.69352 3.18825
260.5875 0.00025 2.74183 2.52707 2.52203 2.61629 2.67013 2.91365 2.92339 3.05555 2.97782 3.11742 3.2269 3.30874 3.37493 3.13412 2.98311 3.05309 3.01338 3.06464 3.01313 2.7397 2.65251 2.65598 2.57049 2.51817 2.69237 2.91877 2.994 3.11138 3.05324 3.02195 2.99265 3.05556 3.27165 3.37146 3.24975 3.36183 3.37548 3.39761 3.58561 3.59237 3.26185 3.1657 3.29427 3.26537 3.1208 3.05635 3.11594 3.16228 3.18569 3.15882 3.05392 3.02233 2.97878 3.03156 3.41382 3.8244 3.58142 3.3121 3.42405 3.60635 3.73826 3.48311 3.1691 3.03895 2.71439 2.66363 2.71649 2.79295 2.67582 2.5263 2.4342 2.45924 2.54977 2.63562 2.65097 2.58972 2.58476 2.53621 2.57127 2.58158 2.45287 2.46097 2.50501 2.5521 2.55627 2.56161 2.78355 2.86716 2.86647 2.9595 3.041 3.13191 3.24465 3.1206 3.05481 3.18766 3.4233 3.67284 3.70091 3.19457
260.59 0.00025 2.73803 2.52588 2.52365 2.61097 2.66531 2.90362 2.93168 3.05648 2.96259 3.09499 3.20603 3.28463 3.35806 3.16555 2.97579 3.04933 3.00663 3.0621 3.02109 2.74443 2.65778 2.65765 2.57282 2.51151 2.68326 2.9166 2.98912 3.11074 3.05533 3.02465 2.99689 3.06267 3.2878 3.38523 3.24788 3.35212 3.36037 3.37364 3.54874 3.61247 3.29679 3.16827 3.29062 3.24904 3.12049 3.05593 3.11161 3.16484 3.19294 3.14766 3.0387 3.02565 2.97956 3.01104 3.38226 3.83981 3.62498 3.33005 3.4204 3.56053 3.71558 3.50352 3.17796 3.04537 2.71826 2.66079 2.71875 2.78556 2.67423 2.52553 2.43256 2.46004 2.54723 2.63169 2.65595 2.59794 2.59202 2.54065 2.56671 2.58817 2.4638 2.46657 2.50616 2.55041 2.56212 2.56191 2.78399 2.8653 2.85385 2.95215 3.0447 3.14432 3.25159 3.13318 3.05765 3.18737 3.43224 3.68153 3.70799 3.20086
260.5925 0.00025 2.73341 2.52435 2.5256 2.60582 2.66123 2.89344 2.93986 3.05538 2.94995 3.07548 3.18524 3.26278 3.33559 3.19789 2.97309 3.0432 2.99871 3.05537 3.03004 2.74987 2.66324 2.65881 2.57648 2.50654 2.67505 2.91364 2.98516 3.10866 3.05721 3.02829 3.00122 3.06976 3.3038 3.39846 3.24794 3.34051 3.34778 3.35332 3.51444 3.61899 3.3331 3.17305 3.28733 3.23297 3.12011 3.0564 3.10714 3.16765 3.19942 3.13692 3.02285 3.02926 2.9803 2.99337 3.35019 3.8497 3.67186 3.34862 3.41945 3.51673 3.68737 3.5208 3.188 3.05138 2.72446 2.65864 2.72111 2.77757 2.67215 2.52501 2.43138 2.4611 2.54486 2.62734 2.66036 2.60641 2.59985 2.54558 2.56226 2.59273 2.47491 2.47272 2.50789 2.54889 2.56753 2.56365 2.7844 2.8638 2.84162 2.94461 3.0463 3.15654 3.25863 3.14551 3.06136 3.18752 3.44085 3.69023 3.71477 3.20709