260.5025 0.00025 3.2168 3.19241 3.11708 2.90515 2.97512 3.08679 3.16283 3.15531 3.10887 3.1071 3.01964 3.03049 3.26808 3.35269 3.45229 3.71192 3.68753 3.39096 3.17007 3.18557 3.08877 3.06801 3.21468 3.33853 3.37955 3.39426 3.40199 3.4514 3.37034 3.15621 2.92697 2.85098 3.09873 3.42178 3.21484 3.23813 3.45449 3.35864 3.15212 2.81378 2.61103 2.68164 2.92044 2.98627 3.01235 3.17092 3.27354 3.03922 2.75601 2.66197 2.66289 2.64549 2.72841 2.81596 2.86543 2.79598 2.69336 2.65892 2.71891 2.81912 2.78609 2.76481 2.75219 2.72345 2.70603 2.72156 2.75678 2.80929 2.89355 2.87964 2.79899 2.75783 2.75539 2.71295 2.74419 3.01046 3.19866 3.07228 3.0411 3.09473 3.20456 3.21787 3.35927 3.47498 3.40432 3.37685 3.33276 3.36265 3.42791 3.29095 3.15637 3.16942 3.18582 3.36501 3.46161 3.3917 3.11002 2.97115 2.92127 3.00438
260.505 0.00025 3.212 3.21552 3.13974 2.9146 2.97799 3.08356 3.16481 3.16798 3.10483 3.11737 3.03129 3.02681 3.24935 3.34274 3.42033 3.67377 3.68956 3.40642 3.1759 3.187 3.09536 3.07523 3.21507 3.33848 3.3806 3.38863 3.39107 3.45802 3.37206 3.16607 2.92563 2.85499 3.09924 3.42225 3.23268 3.24103 3.4461 3.34902 3.13898 2.79519 2.59739 2.67446 2.90961 2.97816 3.00492 3.17049 3.27677 3.02953 2.74869 2.65936 2.66185 2.64092 2.7321 2.82653 2.86838 2.79695 2.68865 2.65208 2.70538 2.81048 2.78572 2.76611 2.75662 2.72789 2.70647 2.72028 2.75354 2.80763 2.89362 2.88483 2.80394 2.75846 2.7546 2.7214 2.75505 3.02181 3.2035 3.06319 3.03338 3.0996 3.20898 3.21635 3.36864 3.47241 3.40689 3.37019 3.32174 3.35784 3.4385 3.30633 3.16928 3.16515 3.1813 3.36062 3.462 3.38815 3.10427 2.9677 2.91909 2.9994
260.5075 0.00025 3.20585 3.23611 3.16035 2.92525 2.9823 3.07994 3.16396 3.18268 3.10097 3.12602 3.04155 3.02341 3.23054 3.33089 3.39229 3.63629 3.68631 3.4225 3.18231 3.18762 3.10083 3.08445 3.21621 3.33738 3.3804 3.38187 3.38035 3.46413 3.37279 3.17533 2.9248 2.86017 3.10064 3.42005 3.25107 3.24363 3.43501 3.33755 3.1271 2.77734 2.58391 2.66815 2.89955 2.96885 2.99807 3.16989 3.27868 3.01916 2.74216 2.65727 2.66061 2.63662 2.73504 2.83648 2.872 2.79813 2.68541 2.64573 2.69165 2.80101 2.78544 2.76678 2.76119 2.73324 2.70758 2.71909 2.75019 2.80572 2.8938 2.89042 2.80923 2.75942 2.75305 2.73 2.76685 3.03287 3.20757 3.05421 3.0256 3.10484 3.21342 3.21685 3.37842 3.46854 3.40908 3.36359 3.31148 3.35343 3.44938 3.32173 3.18207 3.16023 3.17734 3.35667 3.46263 3.38477 3.09897 2.96432 2.91684 2.99438
260.51 0.00025 3.19832 3.25358 3.17791 2.93633 2.98781 3.07634 3.16064 3.19823 3.09838 3.13329 3.0499 3.02002 3.21237 3.3169 3.36772 3.60031 3.67771 3.43819 3.18912 3.18785 3.10544 3.09553 3.21776 3.33505 3.37881 3.37379 3.37043 3.46932 3.37277 3.18342 2.92465 2.86641 3.10274 3.41531 3.26932 3.24572 3.42138 3.32386 3.11668 2.76086 2.57093 2.6627 2.89022 2.95872 2.99185 3.16893 3.27884 3.00815 2.73637 2.65565 2.65912 2.63273 2.73733 2.84548 2.87604 2.79965 2.68344 2.6398 2.6778 2.79071 2.78508 2.76679 2.76569 2.73937 2.70939 2.71793 2.74681 2.80349 2.89395 2.89639 2.81504 2.76071 2.75069 2.73855 2.77972 3.04374 3.21079 3.04534 3.01778 3.11046 3.21782 3.21941 3.38825 3.46339 3.41067 3.35715 3.30217 3.34944 3.46047 3.33697 3.19459 3.15477 3.17386 3.35329 3.46337 3.38159 3.09405 2.96101 2.91457 2.9894
260.5125 0.00025 3.18974 3.26817 3.19244 2.94691 2.9936 3.07325 3.15551 3.21398 3.09818 3.13967 3.0558 3.01652 3.19553 3.3017 3.34701 3.56714 3.66437 3.45307 3.19671 3.18876 3.10918 3.10821 3.21905 3.33119 3.37581 3.36426 3.36133 3.47334 3.37243 3.19002 2.9251 2.87369 3.10544 3.40844 3.28673 3.24737 3.40565 3.30757 3.10747 2.74592 2.5587 2.6577 2.88147 2.94819 2.98636 3.16785 3.27715 2.99655 2.73144 2.65457 2.65736 2.62936 2.73896 2.85338 2.88047 2.80157 2.68259 2.63432 2.66389 2.77968 2.78467 2.76625 2.76999 2.74615 2.71177 2.71666 2.74351 2.80086 2.89392 2.90274 2.82156 2.76227 2.74741 2.74677 2.79369 3.05453 3.21311 3.0366 3.00997 3.11639 3.22219 3.22402 3.39793 3.45719 3.41157 3.35106 3.29387 3.34578 3.47172 3.35193 3.2067 3.1489 3.17079 3.35051 3.4642 3.37861 3.08955 2.95785 2.91232 2.98447
260.515 0.00025 3.1801 3.28153 3.20472 2.95673 2.99967 3.07102 3.15055 3.22982 3.10061 3.14582 3.05892 3.01331 3.1804 3.2869 3.33043 3.53708 3.6473 3.46684 3.20501 3.19078 3.11189 3.12185 3.21966 3.32561 3.37148 3.35317 3.35349 3.47616 3.37195 3.19482 2.92622 2.88162 3.10885 3.39996 3.30226 3.24813 3.38805 3.28869 3.09857 2.73263 2.54764 2.65316 2.87317 2.93764 2.98143 3.1666 3.27338 2.98452 2.72729 2.65383 2.65531 2.62656 2.73993 2.85993 2.88507 2.80412 2.6827 2.62936 2.64998 2.76816 2.78409 2.76502 2.77402 2.75349 2.71468 2.71515 2.74046 2.79808 2.89357 2.90927 2.8288 2.76417 2.74325 2.7545 2.80859 3.06534 3.21446 3.02797 3.00218 3.1226 3.22654 3.23054 3.40715 3.45008 3.41156 3.34527 3.2866 3.34252 3.48313 3.36648 3.2183 3.14271 3.1681 3.34847 3.465 3.3758 3.08549 2.95483 2.91006 2.97958
260.5175 0.00025 3.16921 3.29408 3.21661 2.96628 3.00547 3.07054 3.14753 3.24508 3.10578 3.15225 3.05973 3.01052 3.16624 3.27394 3.31775 3.51104 3.62796 3.47899 3.21404 3.19426 3.11348 3.13588 3.21891 3.31815 3.36568 3.34057 3.3469 3.47782 3.37141 3.19759 2.92809 2.88989 3.11284 3.38988 3.31514 3.24769 3.369 3.26671 3.08974 2.72112 2.53806 2.64895 2.86509 2.92736 2.97703 3.16514 3.26734 2.97235 2.72392 2.65355 2.65303 2.62446 2.7403 2.86505 2.88959 2.8074 2.68352 2.62481 2.63619 2.7562 2.78324 2.76317 2.77775 2.76119 2.71796 2.71321 2.73766 2.79518 2.89279 2.91584 2.83687 2.76649 2.73843 2.76153 2.82423 3.07631 3.21477 3.01948 2.99442 3.12905 3.23091 3.2389 3.41561 3.44232 3.41058 3.33993 3.28042 3.33974 3.4946 3.38048 3.22922 3.13635 3.16571 3.34722 3.46562 3.37326 3.08187 2.952 2.90777 2.9747
260.52 0.00025 3.15763 3.30614 3.22736 2.9768 3.0101 3.07272 3.14757 3.25885 3.11291 3.15863 3.05841 3.0077 3.15283 3.26386 3.30833 3.48955 3.60773 3.48906 3.22351 3.19876 3.11409 3.14949 3.21653 3.30918 3.35843 3.32668 3.3416 3.47823 3.37097 3.19821 2.93078 2.89794 3.1175 3.37893 3.32489 3.24592 3.34893 3.24227 3.07982 2.71153 2.53029 2.64508 2.8572 2.91759 2.97322 3.16339 3.25905 2.96019 2.72119 2.65369 2.65062 2.62305 2.74016 2.8689 2.89378 2.81151 2.68485 2.62062 2.62253 2.74385 2.78192 2.76068 2.78118 2.76903 2.72151 2.71079 2.73503 2.79237 2.89153 2.92215 2.84571 2.76931 2.73313 2.76753 2.84031 3.08762 3.21402 3.01118 2.98674 3.13558 3.23532 3.24893 3.42311 3.43419 3.40853 3.335 3.27516 3.33739 3.50595 3.39383 3.23937 3.12992 3.16347 3.3469 3.46606 3.37095 3.07866 2.94935 2.90547 2.96985
260.5225 0.00025 3.14464 3.31709 3.23473 2.98847 3.01288 3.07777 3.1517 3.27098 3.12165 3.1644 3.05471 3.00418 3.1394 3.25602 3.3013 3.47273 3.58765 3.49639 3.23279 3.20369 3.11431 3.16206 3.21229 3.29895 3.34956 3.31215 3.33786 3.47748 3.37023 3.19662 2.93443 2.90555 3.1228 3.36761 3.33138 3.24246 3.32817 3.21562 3.06862 2.70425 2.52441 2.64149 2.84941 2.90842 2.97016 3.16131 3.24842 2.94835 2.71915 2.65427 2.64821 2.62223 2.7397 2.87161 2.89743 2.81632 2.68647 2.61668 2.60916 2.73119 2.78005 2.75752 2.78428 2.77695 2.72528 2.70786 2.73241 2.78986 2.8899 2.92798 2.85535 2.77276 2.72776 2.77213 2.85653 3.09935 3.21215 3.00306 2.97917 3.1421 3.23992 3.26042 3.4294 3.42596 3.40549 3.33052 3.27078 3.33579 3.51712 3.40641 3.24868 3.12356 3.16139 3.34751 3.46616 3.3689 3.0759 2.94693 2.90314 2.96502
260.525 0.00025 3.13127 3.32599 3.23721 3.00099 3.01371 3.08385 3.15931 3.28082 3.1315 3.16868 3.04788 2.99985 3.12551 3.2496 3.29646 3.46053 3.56748 3.49981 3.24172 3.20855 3.11491 3.17303 3.20635 3.2878 3.33889 3.29749 3.33583 3.47573 3.36888 3.1928 2.93909 2.91269 3.12858 3.356 3.33439 3.23738 3.30718 3.1877 3.05563 2.69931 2.5206 2.63832 2.84146 2.89974 2.96812 3.15868 3.23562 2.93699 2.71762 2.65515 2.6459 2.62197 2.73898 2.87316 2.90033 2.82175 2.68838 2.61275 2.59628 2.71828 2.77742 2.75375 2.78715 2.7848 2.72912 2.70442 2.72959 2.7877 2.8879 2.93307 2.86559 2.77692 2.72269 2.77493 2.87275 3.11158 3.20925 2.99516 2.97182 3.14846 3.24477 3.2732 3.43423 3.41779 3.40148 3.32639 3.2672 3.33518 3.52799 3.41824 3.25704 3.11732 3.1594 3.34911 3.46592 3.36716 3.07353 2.94472 2.90077 2.96018
260.5275 0.00025 3.11718 3.33175 3.23473 3.01231 3.01315 3.08868 3.16764 3.28786 3.14139 3.1705 3.03692 2.99384 3.11155 3.24386 3.29451 3.45305 3.54722 3.4983 3.25038 3.21327 3.11617 3.18192 3.19899 3.2759 3.32657 3.28354 3.33561 3.47301 3.36645 3.18701 2.9444 2.91944 3.13479 3.34413 3.33374 3.23055 3.28634 3.15965 3.04073 2.6967 2.51849 2.63569 2.83341 2.89158 2.96739 3.1554 3.22071 2.92623 2.7167 2.65629 2.64389 2.62211 2.73797 2.87386 2.90237 2.82782 2.69044 2.60876 2.58405 2.70534 2.77381 2.74937 2.78979 2.79258 2.73308 2.70061 2.72637 2.78596 2.88562 2.93733 2.87623 2.78185 2.71831 2.77569 2.88884 3.12427 3.20542 2.98745 2.96474 3.15454 3.24996 3.28698 3.43745 3.40986 3.39661 3.32254 3.26421 3.33586 3.53833 3.4292 3.26433 3.1113 3.15755 3.35165 3.46535 3.36574 3.07161 2.94277 2.89837 2.95538
260.53 0.00025 3.1035 3.33382 3.22786 3.02108 3.01168 3.09106 3.174 3.29204 3.15056 3.16915 3.02205 2.98561 3.09831 3.23811 3.29673 3.44934 3.52777 3.49225 3.25898 3.2179 3.11815 3.18878 3.19042 3.26325 3.31253 3.27086 3.33683 3.46947 3.36263 3.17956 2.95013 2.926 3.14134 3.33229 3.32982 3.22198 3.26593 3.13194 3.02446 2.69623 2.51813 2.63357 2.82525 2.88399 2.96814 3.15116 3.20396 2.91624 2.71639 2.65774 2.64242 2.62258 2.73677 2.87389 2.90344 2.8341 2.69282 2.60449 2.57259 2.69249 2.76927 2.74437 2.7921 2.80024 2.73704 2.6965 2.72255 2.78455 2.88318 2.94073 2.887 2.78753 2.71491 2.77424 2.90463 3.13723 3.20078 2.97997 2.95805 3.16017 3.25561 3.30155 3.43891 3.40225 3.39109 3.31892 3.26174 3.33807 3.54805 3.43932 3.27054 3.10541 3.15577 3.35498 3.46436 3.36466 3.07008 2.94103 2.89597 2.95058
260.5325 0.00025 3.09058 3.3323 3.21836 3.02708 3.01077 3.09069 3.17781 3.29317 3.15744 3.16496 3.00495 2.97449 3.08649 3.23282 3.30423 3.44943 3.51094 3.48168 3.26741 3.22244 3.12092 3.19383 3.18078 3.25009 3.29666 3.25973 3.33915 3.46518 3.35687 3.17084 2.95606 2.93266 3.14796 3.32082 3.32266 3.2118 3.24617 3.1051 3.00668 2.69771 2.51946 2.63201 2.81714 2.8768 2.97031 3.14587 3.18566 2.90707 2.71666 2.65935 2.64149 2.62333 2.73549 2.87351 2.90359 2.8404 2.6956 2.5998 2.56201 2.67976 2.76358 2.73878 2.79404 2.80772 2.74099 2.69232 2.71799 2.78323 2.88065 2.94336 2.89756 2.79394 2.7127 2.77081 2.91994 3.15027 3.19557 2.97271 2.95178 3.16521 3.26178 3.31658 3.43849 3.39503 3.38516 3.31544 3.25952 3.34198 3.55678 3.44849 3.27563 3.09975 3.15412 3.35909 3.46303 3.36392 3.06897 2.93957 2.89354 2.94576
260.535 0.00025 3.0787 3.32688 3.20677 3.03046 3.01077 3.08746 3.18051 3.29029 3.16118 3.15863 2.98701 2.96051 3.07637 3.22868 3.3171 3.45221 3.4976 3.46665 3.27525 3.22676 3.12418 3.19751 3.17016 3.23636 3.27904 3.25029 3.34175 3.46049 3.3492 3.16138 2.96178 2.93934 3.15421 3.30994 3.31263 3.20058 3.22705 3.07936 2.98809 2.70043 2.52258 2.63091 2.80942 2.86997 2.97379 3.13963 3.16613 2.89867 2.71752 2.66106 2.64127 2.62424 2.73405 2.87286 2.90297 2.84634 2.69885 2.59466 2.55239 2.66734 2.7567 2.73263 2.79555 2.81512 2.74483 2.68814 2.71267 2.78178 2.87809 2.94527 2.9077 2.80102 2.71181 2.76595 2.93434 3.16313 3.18994 2.96569 2.94599 3.16953 3.26853 3.33181 3.43619 3.38809 3.37902 3.312 3.25733 3.34779 3.56436 3.45678 3.27964 3.09431 3.15269 3.36381 3.46138 3.3635 3.06824 2.93832 2.89111 2.94095
260.5375 0.00025 3.06859 3.3185 3.19397 3.03215 3.01239 3.08063 3.18243 3.28295 3.16092 3.15148 2.96999 2.94385 3.06776 3.22675 3.33469 3.45657 3.48932 3.44707 3.28139 3.23089 3.12764 3.19993 3.15883 3.22195 3.26011 3.24233 3.34411 3.45582 3.33941 3.15175 2.9668 2.94624 3.1599 3.2999 3.30001 3.1885 3.20854 3.05533 2.96914 2.70407 2.52767 2.63 2.80241 2.86313 2.97849 3.13256 3.14579 2.89107 2.71894 2.66284 2.64173 2.6252 2.73256 2.87202 2.90168 2.85158 2.70287 2.58905 2.54367 2.65539 2.74865 2.72597 2.7965 2.82245 2.74843 2.68406 2.70679 2.77996 2.8755 2.94663 2.91732 2.80858 2.71216 2.76041 2.94726 3.17566 3.18411 2.95901 2.94079 3.17303 3.27591 3.34692 3.43206 3.38142 3.37293 3.30859 3.25496 3.35551 3.57055 3.4641 3.2826 3.08907 3.15147 3.36902 3.45953 3.36349 3.06797 2.93732 2.88864 2.93611
260.54 0.00025 3.06064 3.30763 3.18059 3.03262 3.01629 3.07063 3.18264 3.27122 3.15665 3.14339 2.95488 2.92584 3.06026 3.22777 3.35563 3.46138 3.48515 3.42418 3.28569 3.23504 3.13114 3.20125 3.14711 3.2067 3.24064 3.23568 3.34569 3.45104 3.32777 3.14245 2.97067 2.95311 3.16476 3.29062 3.28511 3.17562 3.1907 3.03284 2.95071 2.70797 2.53476 2.62916 2.7966 2.85622 2.98426 3.12491 3.1251 2.88426 2.72085 2.66462 2.64292 2.62616 2.73092 2.87099 2.89995 2.85579 2.70763 2.58309 2.53585 2.64398 2.73946 2.7188 2.79678 2.82979 2.75175 2.6802 2.7005 2.77743 2.87289 2.94748 2.92634 2.81644 2.71362 2.75521 2.95808 3.18779 3.1782 2.95272 2.93623 3.17564 3.28393 3.36161 3.42616 3.37487 3.36705 3.30518 3.25219 3.36508 3.57509 3.47036 3.28454 3.08401 3.15053 3.37455 3.45762 3.3639 3.06807 2.93652 2.88615 2.93127
260.5425 0.00025 3.05488 3.29519 3.16599 3.03115 3.02182 3.05782 3.17854 3.25478 3.14838 3.13382 2.94198 2.90752 3.05409 3.23111 3.37906 3.466 3.48342 3.39897 3.28762 3.23885 3.13473 3.20126 3.13554 3.1905 3.22121 3.23032 3.3458 3.44605 3.31454 3.13387 2.97267 2.96006 3.16873 3.28165 3.26844 3.16217 3.17369 3.01217 2.93319 2.71184 2.54373 2.62814 2.79223 2.8491 2.99118 3.11666 3.10442 2.87837 2.72324 2.66641 2.64474 2.62706 2.72917 2.86993 2.89795 2.85875 2.71318 2.5769 2.52887 2.63321 2.72922 2.71124 2.79637 2.83712 2.75467 2.67663 2.69405 2.77409 2.87018 2.94794 2.93467 2.82436 2.71599 2.75115 2.96621 3.19938 3.17224 2.94695 2.93235 3.17727 3.29249 3.37552 3.41869 3.3684 3.36156 3.30186 3.24907 3.37633 3.57797 3.47555 3.28556 3.07912 3.14995 3.38025 3.45573 3.36466 3.06857 2.9359 2.88363 2.92639
260.545 0.00025 3.05149 3.2822 3.14993 3.02753 3.02807 3.04328 3.17015 3.23343 3.13671 3.12219 2.9307 2.8905 3.04909 3.23563 3.40385 3.47076 3.48333 3.37383 3.28749 3.24196 3.13821 3.19984 3.12414 3.17335 3.20227 3.22619 3.34401 3.44049 3.30019 3.12606 2.97214 2.96713 3.17196 3.27266 3.2503 3.14833 3.1575 2.99304 2.91699 2.71531 2.5543 2.62715 2.78933 2.84185 2.99893 3.10798 3.08409 2.87338 2.72581 2.66812 2.64713 2.62789 2.72736 2.86881 2.89586 2.86035 2.71935 2.57069 2.5227 2.62318 2.71804 2.70342 2.79533 2.84435 2.75711 2.67335 2.68767 2.76972 2.86724 2.94813 2.9424 2.83222 2.71911 2.74887 2.97141 3.2103 3.16626 2.94182 2.92927 3.17791 3.30149 3.38838 3.40987 3.36185 3.35645 3.29873 3.24574 3.38913 3.57894 3.47966 3.28573 3.07447 3.14974 3.38591 3.45402 3.36581 3.06947 2.93541 2.88104 2.92149
260.5475 0.00025 3.05027 3.26907 3.13331 3.02328 3.03459 3.02853 3.15947 3.2083 3.12173 3.10762 2.91965 2.87523 3.04479 3.23997 3.42917 3.47497 3.48537 3.35057 3.28537 3.24382 3.14151 3.19716 3.11302 3.1552 3.18413 3.22309 3.34019 3.43384 3.28523 3.11916 2.96894 2.9743 3.1746 3.26316 3.2312 3.13411 3.14259 2.97509 2.9026 2.71824 2.56595 2.62643 2.78768 2.83486 3.00698 3.09878 3.06432 2.86942 2.72845 2.66972 2.64991 2.62855 2.72547 2.86762 2.89377 2.86054 2.7261 2.5646 2.51712 2.61379 2.70599 2.69538 2.79364 2.85141 2.75913 2.67044 2.68157 2.76451 2.86392 2.94803 2.94944 2.83995 2.72268 2.74863 2.97386 3.22023 3.16023 2.93748 2.92705 3.17767 3.31079 3.39989 3.39999 3.35513 3.35173 3.29598 3.24241 3.40314 3.57786 3.48267 3.28518 3.07001 3.14993 3.39142 3.45254 3.36732 3.07078 2.93503 2.87843 2.91657
260.55 0.00025 3.05095 3.25564 3.11746 3.01934 3.03986 3.01534 3.14883 3.18174 3.10373 3.09006 2.9081 2.86193 3.03961 3.24316 3.45345 3.47736 3.48896 3.33019 3.28112 3.24433 3.14467 3.19309 3.1021 3.13598 3.16692 3.22019 3.33417 3.42566 3.27016 3.11306 2.96283 2.98142 3.17662 3.25261 3.21145 3.11932 3.129 2.95797 2.89043 2.72066 2.57805 2.62646 2.78693 2.82889 3.01476 3.08913 3.04503 2.86661 2.73098 2.67116 2.65304 2.62918 2.72362 2.86638 2.89166 2.85926 2.73314 2.55896 2.5121 2.6052 2.69329 2.68726 2.79137 2.85829 2.76066 2.6679 2.67595 2.75849 2.86025 2.94777 2.95576 2.84759 2.72659 2.75049 2.97415 3.22866 3.15405 2.93401 2.92573 3.17661 3.32018 3.40982 3.38942 3.34822 3.34723 3.29359 3.23949 3.41799 3.57464 3.48458 3.28398 3.06581 3.15047 3.39659 3.45158 3.36914 3.07249 2.93472 2.87579 2.91162
260.5525 0.00025 3.05325 3.2418 3.10333 3.01499 3.04374 3.00401 3.13981 3.15666 3.08327 3.06964 2.89595 2.85104 3.03245 3.24557 3.47526 3.47697 3.49281 3.31363 3.27466 3.24346 3.1474 3.18741 3.09124 3.11565 3.15107 3.21666 3.32604 3.41532 3.25536 3.10741 2.95421 2.98853 3.1781 3.24067 3.19167 3.10365 3.11699 2.94102 2.88045 2.72293 2.59002 2.62766 2.78647 2.82428 3.02171 3.0792 3.02634 2.86519 2.73327 2.67229 2.65628 2.62986 2.72188 2.86514 2.8895 2.8567 2.74014 2.55394 2.5075 2.59731 2.68003 2.67911 2.7886 2.86489 2.76167 2.6657 2.67094 2.75181 2.85611 2.94733 2.96138 2.85521 2.73063 2.75434 2.97327 3.23508 3.14773 2.93149 2.92534 3.17488 3.32944 3.41796 3.37836 3.34103 3.34288 3.29167 3.23744 3.43337 3.56934 3.4854 3.28231 3.06189 3.15138 3.40134 3.45108 3.37127 3.07456 2.93441 2.87312 2.90663
260.555 0.00025 3.05694 3.22769 3.09161 3.01 3.04559 2.99453 3.13272 3.13555 3.06146 3.04779 2.88364 2.84316 3.02376 3.24788 3.49313 3.47437 3.49557 3.30134 3.26667 3.24084 3.14977 3.17997 3.08064 3.09463 3.137 3.21186 3.31578 3.40276 3.24122 3.10194 2.9435 2.99514 3.17924 3.22718 3.17238 3.08692 3.10664 2.924 2.87254 2.72541 2.60148 2.63042 2.78613 2.82145 3.02729 3.06897 3.00821 2.86518 2.73522 2.6732 2.65949 2.63053 2.72021 2.86388 2.88723 2.85297 2.7469 2.54969 2.50319 2.59008 2.66654 2.67103 2.78535 2.87114 2.76228 2.66382 2.66665 2.74463 2.85151 2.94676 2.96622 2.86285 2.73481 2.75989 2.97221 3.23885 3.14124 2.93001 2.92596 3.17266 3.33831 3.42415 3.3671 3.33365 3.33851 3.29012 3.23654 3.44869 3.56178 3.48516 3.28023 3.0583 3.15265 3.40561 3.45121 3.3737 3.07698 2.93408 2.87041 2.90162
260.5575 0.00025 3.0614 3.2131 3.08129 3.00566 3.04516 2.98695 3.12705 3.11993 3.03921 3.02533 2.87177 2.83855 3.01428 3.2512 3.50442 3.47107 3.49624 3.29246 3.25759 3.23665 3.15191 3.17072 3.07045 3.07316 3.12512 3.20534 3.3038 3.38763 3.22798 3.09631 2.93139 3.00108 3.18011 3.21234 3.15405 3.06909 3.098 2.90664 2.8663 2.72873 2.612 2.6349 2.78565 2.82052 3.03151 3.05833 2.9907 2.86654 2.73676 2.67375 2.66252 2.63136 2.71877 2.86286 2.88481 2.84837 2.75311 2.54643 2.49904 2.58339 2.65292 2.66311 2.78178 2.87699 2.7625 2.66227 2.66312 2.73715 2.84647 2.946 2.97032 2.87063 2.7391 2.76677 2.97188 3.23961 3.13446 2.92948 2.92771 3.17018 3.34659 3.42835 3.35582 3.326 3.3339 3.28883 3.23709 3.46368 3.55195 3.48397 3.27797 3.05503 3.15427 3.40928 3.452 3.37646 3.07973 2.9337 2.86772 2.89659
260.56 0.00025 3.06641 3.19858 3.07072 3.00309 3.04275 2.98171 3.12301 3.10966 3.018 3.00357 2.86167 2.83668 3.00443 3.25591 3.50788 3.46816 3.49457 3.28697 3.24832 3.23051 3.15377 3.16011 3.06094 3.05166 3.11557 3.197 3.28981 3.36995 3.21565 3.09035 2.91847 3.00593 3.18034 3.1961 3.1366 3.05044 3.09103 2.8893 2.86167 2.73304 2.62126 2.64106 2.78517 2.82118 3.03459 3.04711 2.9742 2.86897 2.73795 2.67381 2.66514 2.63236 2.71744 2.86206 2.88196 2.84301 2.75839 2.54412 2.49486 2.57708 2.63933 2.65532 2.77796 2.8824 2.76239 2.66102 2.66038 2.72944 2.84107 2.94508 2.97372 2.87851 2.7436 2.77466 2.9729 3.23726 3.12718 2.92979 2.9306 3.16763 3.35396 3.43055 3.34467 3.31819 3.32892 3.28756 3.23944 3.47781 3.54002 3.48177 3.27555 3.0521 3.1562 3.41225 3.45341 3.37941 3.08275 2.93318 2.86499 2.89148
260.5625 0.00025 3.07208 3.18404 3.0602 3.00302 3.03868 2.97928 3.12123 3.10409 2.99901 2.98306 2.85484 2.83606 2.99376 3.26385 3.50289 3.46594 3.49038 3.2849 3.23913 3.22208 3.1554 3.14854 3.05215 3.0305 3.10817 3.18696 3.27388 3.35025 3.20415 3.0838 2.90529 3.00955 3.17968 3.1788 3.12 3.03161 3.08579 2.87225 2.85831 2.73876 2.62931 2.64894 2.78501 2.823 3.03685 3.03477 2.95901 2.87214 2.73889 2.67337 2.66711 2.63366 2.7164 2.86159 2.87876 2.83711 2.76244 2.54281 2.49071 2.57123 2.62598 2.6477 2.77396 2.88724 2.76216 2.66007 2.65847 2.72155 2.83535 2.9439 2.97649 2.88644 2.7485 2.7833 2.9755 3.2321 3.11898 2.93076 2.93478 3.16527 3.36017 3.43096 3.33386 3.31027 3.32356 3.28612 3.24377 3.49072 3.52621 3.47867 3.27315 3.04954 3.15844 3.4145 3.45542 3.38264 3.08605 2.93255 2.86225 2.88632
260.565 0.00025 3.07824 3.17062 3.0491 3.00481 3.03371 2.98005 3.12255 3.10266 2.98235 2.96401 2.85171 2.83537 2.98263 3.27452 3.49017 3.46459 3.4834 3.28554 3.22972 3.2113 3.15687 3.13649 3.04408 3.01024 3.10261 3.17568 3.25621 3.32906 3.1932 3.07671 2.89277 3.01182 3.17783 3.16063 3.10429 3.01348 3.08217 2.85628 2.85592 2.74606 2.63618 2.65828 2.78547 2.82546 3.03854 3.02088 2.94544 2.8756 2.73975 2.67251 2.6683 2.63525 2.71567 2.8614 2.87501 2.83094 2.76497 2.54249 2.4865 2.56558 2.6131 2.6404 2.76991 2.89155 2.76188 2.65941 2.65749 2.71359 2.82949 2.94243 2.97861 2.89422 2.75398 2.79252 2.97969 3.22489 3.10931 2.93219 2.94021 3.1633 3.36494 3.42964 3.32354 3.30242 3.31795 3.28433 3.25015 3.50205 3.51094 3.47475 3.27095 3.04742 3.1611 3.41607 3.45789 3.38611 3.0895 2.93176 2.85954 2.88113
260.5675 0.00025 3.08488 3.1585 3.03756 3.00755 3.02791 2.9837 3.12661 3.10435 2.96726 2.94659 2.85196 2.8338 2.97221 3.28566 3.47083 3.46297 3.4742 3.28782 3.22011 3.19811 3.15781 3.12463 3.03657 2.99146 3.09831 3.16322 3.23731 3.30691 3.18248 3.069 2.88146 3.01268 3.17453 3.14189 3.08929 2.9967 3.08022 2.84214 2.85396 2.75453 2.64192 2.66894 2.78661 2.82818 3.03993 3.00525 2.93393 2.87895 2.74063 2.67119 2.66846 2.63724 2.71526 2.86145 2.87084 2.8247 2.76591 2.54317 2.48219 2.56019 2.6008 2.63346 2.76583 2.89533 2.76173 2.65903 2.6574 2.70557 2.82356 2.94056 2.98008 2.90165 2.76016 2.80222 2.98526 3.21644 3.09752 2.93386 2.94693 3.16189 3.36807 3.42681 3.3138 3.2946 3.31208 3.28207 3.25858 3.51147 3.49447 3.46997 3.26889 3.04567 3.16396 3.41689 3.46079 3.38981 3.09302 2.9308 2.85688 2.87588
260.57 0.00025 3.09198 3.14802 3.02684 3.01106 3.02099 2.98977 3.1326 3.10806 2.95288 2.93124 2.85471 2.83161 2.96304 3.29436 3.44638 3.46024 3.46355 3.29054 3.21095 3.18252 3.15802 3.11377 3.02924 2.97463 3.09474 3.14992 3.21793 3.28454 3.17157 3.06084 2.87191 3.01228 3.1694 3.1226 3.07484 2.9819 3.07913 2.82998 2.8519 2.76419 2.64674 2.68086 2.78835 2.83117 3.04086 2.98802 2.92468 2.88189 2.74148 2.66969 2.66749 2.63962 2.71518 2.86169 2.86625 2.8185 2.76506 2.54466 2.4776 2.55492 2.5892 2.62698 2.76188 2.89855 2.76182 2.65897 2.65825 2.69755 2.81759 2.93829 2.98095 2.90851 2.7671 2.81238 2.99192 3.20763 3.08311 2.9355 2.9549 3.16124 3.36948 3.42265 3.30473 3.28678 3.3061 3.27924 3.26896 3.51869 3.47708 3.46445 3.2671 3.0444 3.16722 3.41705 3.46398 3.39368 3.09661 2.92966 2.85421 2.87056
260.5725 0.00025 3.09985 3.13991 3.01763 3.0153 3.01417 2.9975 3.13965 3.11273 2.93872 2.91795 2.85918 2.82917 2.95472 3.29973 3.41835 3.45597 3.45193 3.29294 3.20295 3.16449 3.15739 3.1046 3.02197 2.96011 3.09121 3.13591 3.19861 3.2625 3.16032 3.05225 2.86443 3.01072 3.1622 3.10283 3.06078 2.96965 3.07856 2.82022 2.84969 2.77473 2.65092 2.69407 2.79059 2.83463 3.04074 2.96975 2.91774 2.88424 2.74238 2.66822 2.66529 2.64233 2.71545 2.86206 2.86134 2.8124 2.76244 2.54681 2.4727 2.54971 2.57833 2.62108 2.75814 2.90127 2.76222 2.65928 2.66005 2.68958 2.81157 2.93557 2.98106 2.91459 2.7748 2.82296 2.99937 3.19909 3.06591 2.93669 2.964 3.16144 3.36907 3.41734 3.29634 3.27896 3.30017 3.27581 3.28094 3.52345 3.45912 3.45832 3.26559 3.04357 3.17078 3.41654 3.46733 3.39778 3.10019 2.92833 2.85158 2.86519
260.575 0.00025 3.10821 3.1336 3.011 3.02084 3.00859 3.00615 3.1465 3.11687 2.92506 2.90688 2.86463 2.82675 2.94566 3.30393 3.38815 3.44949 3.43967 3.29465 3.19659 3.14443 3.15596 3.0979 3.01459 2.94798 3.08717 3.12129 3.17973 3.24129 3.14843 3.04314 2.85889 3.00828 3.15249 3.08268 3.0474 2.96018 3.07779 2.81282 2.8471 2.78586 2.65465 2.70852 2.79318 2.83887 3.03885 2.95109 2.91287 2.88599 2.74324 2.66702 2.66179 2.64535 2.71607 2.86233 2.85619 2.80648 2.75816 2.5494 2.46765 2.54455 2.56823 2.6158 2.75466 2.90338 2.76301 2.66002 2.66273 2.68183 2.8054 2.93241 2.98042 2.91966 2.78309 2.83399 3.00739 3.19109 3.04618 2.93698 2.97402 3.16259 3.36687 3.41101 3.2887 3.27109 3.29447 3.27198 3.29426 3.52556 3.44088 3.45153 3.26432 3.04322 3.17465 3.41534 3.47074 3.40201 3.10367 2.92678 2.84895 2.85976
260.5775 0.00025 3.11725 3.12988 3.00701 3.02849 3.00534 3.01514 3.15229 3.11905 2.91235 2.89761 2.87025 2.82418 2.93521 3.30703 3.35757 3.44063 3.42709 3.29554 3.19213 3.12303 3.15348 3.09389 3.0069 2.93838 3.0821 3.10659 3.16149 3.22134 3.13588 3.03374 2.85536 3.00512 3.14011 3.06199 3.03474 2.95361 3.0761 2.80763 2.84431 2.79737 2.65838 2.72406 2.79606 2.84388 3.03433 2.93295 2.90965 2.88706 2.74381 2.66632 2.65715 2.64851 2.71705 2.86231 2.85095 2.80083 2.75241 2.55214 2.46256 2.53935 2.55898 2.61132 2.75155 2.90496 2.76411 2.66123 2.66618 2.67443 2.79894 2.92885 2.97897 2.92359 2.79181 2.84545 3.01584 3.18362 3.02472 2.9357 2.98464 3.16472 3.36303 3.40386 3.28189 3.26306 3.2891 3.26786 3.30851 3.52487 3.42256 3.44428 3.26332 3.04339 3.17879 3.41355 3.47405 3.40637 3.107 2.92504 2.84633 2.85423
260.58 0.00025 3.12674 3.12826 3.00536 3.03851 3.00434 3.02403 3.15721 3.11828 2.9014 2.88969 2.87508 2.82126 2.92485 3.30603 3.32792 3.42932 3.41471 3.29586 3.18933 3.10137 3.14983 3.09268 2.99879 2.93107 3.07566 3.09202 3.14427 3.20294 3.12258 3.02394 2.85362 3.0012 3.12481 3.04073 3.0231 2.94961 3.07329 2.80435 2.84169 2.80887 2.6627 2.7404 2.79942 2.8497 3.02679 2.91608 2.90761 2.88754 2.74397 2.6663 2.65145 2.65173 2.71843 2.8619 2.84573 2.79539 2.74535 2.55477 2.45749 2.534 2.5505 2.60767 2.7489 2.90612 2.76552 2.66295 2.67029 2.66759 2.79217 2.92497 2.97668 2.92617 2.80071 2.85739 3.02476 3.17648 3.00255 2.93218 2.99544 3.16778 3.3578 3.39595 3.27585 3.25476 3.28413 3.26379 3.32331 3.5212 3.40444 3.43664 3.2626 3.04411 3.18315 3.4112 3.47722 3.41084 3.11017 2.92311 2.84376 2.84862
260.5825 0.00025 3.13654 3.12914 3.00607 3.05022 3.00489 3.03203 3.16169 3.11393 2.89283 2.88318 2.87874 2.81786 2.91628 3.29658 3.30023 3.41691 3.40282 3.29537 3.18763 3.08063 3.14474 3.09406 2.99004 2.92576 3.06768 3.07765 3.12794 3.18611 3.10886 3.01397 2.85353 2.99672 3.10674 3.01883 3.01265 2.94735 3.06898 2.80279 2.83932 2.81998 2.6681 2.75741 2.80339 2.85601 3.01607 2.90082 2.90624 2.88745 2.74361 2.66685 2.64511 2.6548 2.72008 2.86102 2.84073 2.79024 2.73724 2.55715 2.45244 2.52839 2.54286 2.6048 2.74674 2.9069 2.76708 2.66513 2.67494 2.6614 2.78495 2.92096 2.97372 2.92729 2.80958 2.86978 3.03415 3.16944 2.98075 2.92588 3.00591 3.1717 3.35151 3.38739 3.27062 3.24608 3.27952 3.26012 3.33823 3.51443 3.38667 3.42867 3.26211 3.04532 3.18758 3.40842 3.48003 3.4154 3.11308 2.92106 2.84124 2.84296
260.585 0.00025 3.14668 3.1326 3.00762 3.06234 3.00635 3.03886 3.16622 3.10668 2.88675 2.878 2.88175 2.81419 2.90974 3.27897 3.27553 3.40436 3.39103 3.29433 3.18639 3.06184 3.13836 3.0975 2.98085 2.92218 3.05839 3.06364 3.11287 3.17069 3.09479 3.00395 2.85489 2.9919 3.08583 2.99655 3.00379 2.94615 3.06351 2.80267 2.83712 2.83028 2.67491 2.77476 2.80842 2.86253 3.00244 2.88733 2.90537 2.88681 2.74268 2.6679 2.63858 2.65749 2.72185 2.85953 2.83591 2.78537 2.72835 2.55903 2.44726 2.52241 2.53606 2.60274 2.74516 2.90741 2.76874 2.66774 2.68004 2.65592 2.77733 2.91687 2.97009 2.92693 2.81814 2.88256 3.04391 3.16221 2.96014 2.91653 3.01536 3.17632 3.34457 3.37828 3.26615 3.23706 3.27524 3.25724 3.35298 3.50465 3.3696 3.42049 3.26178 3.04699 3.1921 3.40523 3.48247 3.42006 3.11574 2.91888 2.83875 2.8372
260.5875 0.00025 3.15741 3.13838 3.00892 3.07383 3.008 3.04378 3.17127 3.09759 2.88336 2.87442 2.88419 2.81035 2.90389 3.25608 3.2541 3.39274 3.37875 3.29239 3.18505 3.04509 3.13115 3.10245 2.9714 2.91971 3.04803 3.05006 3.09911 3.15663 3.08049 2.99394 2.85735 2.98689 3.06231 2.97405 2.99652 2.94551 3.05739 2.8033 2.83531 2.83945 2.68339 2.79208 2.81472 2.86888 2.98638 2.87531 2.90493 2.88553 2.74118 2.66909 2.63225 2.6598 2.72371 2.85738 2.83132 2.78082 2.71887 2.56032 2.44199 2.51613 2.53002 2.60144 2.74434 2.90778 2.7704 2.67079 2.68541 2.65109 2.76941 2.91276 2.96584 2.92518 2.82612 2.8958 3.0541 3.15474 2.94121 2.90441 3.02306 3.18141 3.33738 3.36872 3.26234 3.22766 3.27101 3.25554 3.3672 3.4919 3.35346 3.41215 3.26172 3.0491 3.19659 3.40173 3.48437 3.42469 3.11808 2.91658 2.83625 2.83137
260.59 0.00025 3.16828 3.14578 3.00959 3.08406 3.00994 3.04667 3.17735 3.08808 2.88234 2.87281 2.88633 2.80681 2.89752 3.23082 3.23626 3.38305 3.36573 3.28936 3.18378 3.03038 3.1232 3.10852 2.96209 2.91775 3.03717 3.03703 3.08672 3.14352 3.06626 2.98416 2.8604 2.98156 3.03663 2.95152 2.99078 2.94489 3.05107 2.80444 2.83408 2.84745 2.6936 2.80917 2.82245 2.87488 2.96813 2.86452 2.90497 2.88368 2.73915 2.67006 2.62651 2.66149 2.72531 2.85448 2.82699 2.7767 2.70907 2.56084 2.4367 2.50949 2.52479 2.6009 2.74435 2.90798 2.77197 2.67427 2.69084 2.64689 2.7613 2.90855 2.96117 2.92215 2.83336 2.90948 3.06457 3.14699 2.92416 2.89019 3.02825 3.18662 3.3304 3.35893 3.25908 3.21795 3.26677 3.25533 3.38055 3.47633 3.33852 3.40365 3.2619 3.05166 3.201 3.39805 3.4856 3.42927 3.12013 2.91419 2.83377 2.82546
260.5925 0.00025 3.17932 3.15388 3.00978 3.09248 3.0136 3.04768 3.18435 3.07831 2.88315 2.87411 2.88865 2.80357 2.89105 3.20422 3.22236 3.3755 3.35215 3.28547 3.18281 3.01777 3.11468 3.115 2.95321 2.91569 3.0262 3.02465 3.07585 3.13104 3.05215 2.97454 2.86344 2.97617 3.00922 2.92933 2.98626 2.94391 3.04517 2.80561 2.83358 2.85427 2.70529 2.8257 2.83189 2.88055 2.94822 2.85481 2.90546 2.88126 2.73663 2.67051 2.62187 2.66254 2.72637 2.85089 2.82294 2.77299 2.69913 2.56062 2.43159 2.50233 2.52033 2.60096 2.74514 2.90816 2.77343 2.67799 2.69613 2.64325 2.75312 2.9042 2.95622 2.91799 2.83967 2.92351 3.07523 3.13916 2.90887 2.87491 3.03027 3.19143 3.32403 3.34908 3.25624 3.20813 3.26233 3.25684 3.39278 3.45802 3.32499 3.39506 3.26234 3.05458 3.20517 3.39427 3.48609 3.43374 3.12182 2.91174 2.83129 2.81948