260.5025 0.00025 4.30603 3.89821 3.79112 3.43973 3.39358 3.3143 3.26277 3.11293 3.1362 3.26765 3.29472 3.4287 3.48048 3.5525 3.41676 3.40251 3.41268 3.43557 3.36505 3.32193 3.11298 3.13213 3.0614 3.14882 3.24156 3.33599 3.48777 3.76577 3.68985 3.57433 3.47532 3.48838 3.48935 3.3788 3.34351 3.32051 3.40858 3.55221 3.77838 3.74588 3.78113 3.77489 3.67186 3.53617 3.30504 3.10078 2.95793 2.89493 2.84707 2.86177 2.95538 3.09279 3.17884 3.29736 3.31632 3.48394 3.62528 3.78947 3.97024 4.1784 4.38101 4.53663 4.59505 4.69349 4.7371 4.72791 4.73012 4.55662 4.28876 3.80366 3.49998 3.29008 3.18034 3.21247 3.26192 3.24775 3.20205 3.19437 3.18534 3.23372 3.36947 3.46983 3.67658 3.81267 3.77203 3.77084 3.88346 3.78248 3.86071 3.82442 3.92818 3.77057 3.71016 3.62414 3.56265 3.62555 3.59359 3.81985 3.78557 3.90058
260.505 0.00025 4.31079 3.91132 3.79823 3.43796 3.39551 3.33254 3.27071 3.10914 3.12966 3.28945 3.31248 3.43263 3.48437 3.54671 3.42761 3.38862 3.39024 3.42996 3.35762 3.32392 3.11537 3.12171 3.06145 3.1434 3.24035 3.3401 3.47548 3.74912 3.71842 3.58752 3.48534 3.49104 3.49619 3.37176 3.34402 3.32033 3.4274 3.58079 3.80516 3.80206 3.82326 3.8038 3.69816 3.57117 3.3408 3.12317 2.96418 2.89781 2.85268 2.86714 2.95431 3.08334 3.16544 3.28646 3.31091 3.4808 3.61724 3.77601 3.9538 4.15953 4.35392 4.51396 4.5753 4.67082 4.74449 4.73703 4.77064 4.61806 4.39015 3.90905 3.57103 3.35366 3.20797 3.21794 3.26109 3.25433 3.20832 3.20094 3.19576 3.24284 3.37638 3.46703 3.66138 3.80609 3.78136 3.77194 3.88065 3.78391 3.86425 3.82145 3.93148 3.78205 3.7166 3.62967 3.57047 3.62668 3.57094 3.80452 3.77304 3.88983
260.5075 0.00025 4.31288 3.9218 3.81088 3.42532 3.39549 3.35238 3.2784 3.10642 3.12367 3.31094 3.3296 3.43255 3.4905 3.53608 3.43917 3.38298 3.36954 3.42062 3.34811 3.32383 3.12177 3.10984 3.06021 3.13803 3.23859 3.34486 3.46088 3.7257 3.74055 3.60215 3.49847 3.49561 3.50092 3.36676 3.34354 3.31756 3.44253 3.61214 3.82732 3.85881 3.87164 3.83848 3.72804 3.60727 3.37925 3.14687 2.97204 2.90213 2.85891 2.87375 2.95557 3.07492 3.15218 3.27491 3.30569 3.47682 3.60807 3.764 3.93707 4.14294 4.32716 4.4916 4.55667 4.64574 4.74686 4.74317 4.80309 4.67348 4.48309 4.02141 3.64541 3.42326 3.24211 3.22691 3.25867 3.25917 3.21468 3.2074 3.20618 3.25227 3.38288 3.46462 3.64483 3.79696 3.79217 3.77369 3.87803 3.78668 3.8679 3.81829 3.93255 3.79371 3.72379 3.63523 3.58005 3.62758 3.54966 3.78914 3.76015 3.87859
260.51 0.00025 4.31154 3.93446 3.82355 3.40002 3.39491 3.37179 3.28595 3.10539 3.11978 3.33147 3.34456 3.42762 3.49608 3.52403 3.44851 3.38627 3.35005 3.40744 3.33778 3.32179 3.13139 3.09718 3.0584 3.13287 3.23705 3.34909 3.44474 3.69766 3.75416 3.61815 3.51358 3.50306 3.50311 3.36411 3.34176 3.31283 3.4538 3.64529 3.84587 3.91291 3.92671 3.87899 3.76326 3.64446 3.42025 3.1721 2.9819 2.90798 2.86543 2.88147 2.95899 3.06773 3.13938 3.26283 3.30044 3.47151 3.59775 3.7532 3.92034 4.12786 4.30116 4.46956 4.53982 4.61931 4.74386 4.74652 4.82785 4.72254 4.56585 4.13842 3.72419 3.4978 3.2832 3.24056 3.25541 3.26206 3.22093 3.21381 3.21663 3.26197 3.38894 3.46253 3.62739 3.78513 3.80399 3.77652 3.87561 3.79066 3.87192 3.81503 3.93132 3.80532 3.73173 3.64098 3.59145 3.62796 3.52979 3.77372 3.74707 3.86879
260.5125 0.00025 4.30432 3.94668 3.83332 3.36407 3.3934 3.38732 3.29276 3.1082 3.12016 3.34956 3.35693 3.41683 3.49705 3.51325 3.45449 3.39702 3.33106 3.39085 3.32709 3.31823 3.14301 3.08427 3.05707 3.12851 3.23604 3.35206 3.42783 3.66683 3.75829 3.6349 3.53025 3.51398 3.50249 3.3639 3.33868 3.30646 3.4608 3.67873 3.86161 3.96079 3.98785 3.92487 3.80572 3.68291 3.46364 3.199 2.99416 2.91541 2.87217 2.8903 2.96419 3.06181 3.12739 3.25047 3.29486 3.46472 3.58614 3.74308 3.90417 4.11394 4.27651 4.44733 4.52481 4.59256 4.73584 4.74693 4.84587 4.76535 4.63774 4.25688 3.80889 3.57624 3.33161 3.25966 3.25247 3.26293 3.22678 3.22007 3.22712 3.27186 3.39452 3.46077 3.60947 3.77056 3.81618 3.78099 3.87363 3.79587 3.87629 3.81171 3.92782 3.81678 3.74031 3.64713 3.60468 3.62753 3.51145 3.75818 3.73382 3.86058
260.515 0.00025 4.29132 3.95747 3.83395 3.32262 3.39024 3.39474 3.2971 3.11631 3.12573 3.36408 3.36738 3.39964 3.49062 3.50493 3.45754 3.41164 3.31317 3.37106 3.31617 3.31447 3.15497 3.073 3.05608 3.12518 3.235 3.3529 3.41117 3.63493 3.75338 3.65088 3.5474 3.52903 3.49909 3.36593 3.3342 3.29931 3.46348 3.71056 3.87514 4.00022 4.05404 3.97491 3.85763 3.72329 3.50921 3.22783 3.00927 2.92428 2.879 2.90004 2.97076 3.05738 3.11648 3.23802 3.28857 3.45592 3.57323 3.73329 3.88898 4.10084 4.25407 4.42463 4.51181 4.56617 4.72357 4.74439 4.85765 4.80173 4.69884 4.3732 3.90038 3.65768 3.38765 3.28461 3.25115 3.26174 3.23195 3.22615 3.23765 3.2819 3.39959 3.45919 3.59131 3.75338 3.82801 3.78737 3.87224 3.8024 3.88115 3.80859 3.92212 3.82773 3.74921 3.65375 3.6197 3.62625 3.49474 3.74259 3.72057 3.85376
260.5175 0.00025 4.27318 3.96774 3.82451 3.28266 3.38628 3.3923 3.29801 3.12979 3.13646 3.37318 3.37795 3.37696 3.47547 3.49861 3.45954 3.42582 3.29697 3.34776 3.30398 3.3117 3.1661 3.06495 3.05533 3.12361 3.23321 3.35197 3.39596 3.60319 3.74004 3.66391 3.5648 3.5479 3.49354 3.37017 3.32869 3.29216 3.46115 3.73873 3.88666 4.02939 4.12239 4.02743 3.92053 3.76706 3.55666 3.25916 3.02777 2.93454 2.88611 2.91057 2.97824 3.05437 3.10663 3.22573 3.28145 3.4451 3.55907 3.72353 3.87467 4.08801 4.23413 4.40114 4.50058 4.54097 4.7081 4.73913 4.86382 4.83181 4.74937 4.48415 3.99897 3.74178 3.45155 3.31555 3.25303 3.25882 3.23625 3.23199 3.24815 3.29199 3.40415 3.45772 3.57332 3.73391 3.83867 3.7959 3.87164 3.81019 3.88641 3.80594 3.91443 3.83795 3.75842 3.66101 3.63641 3.624 3.47978 3.72681 3.70741 3.84727
260.52 0.00025 4.24996 3.98131 3.80229 3.24929 3.38309 3.38132 3.29436 3.14927 3.15176 3.37376 3.38986 3.35082 3.45204 3.49243 3.46002 3.43609 3.28364 3.32209 3.28953 3.30994 3.1758 3.06013 3.05504 3.1243 3.23007 3.34941 3.38292 3.57261 3.71983 3.67132 3.58256 3.56965 3.48633 3.37603 3.3225 3.28636 3.45411 3.76181 3.89652 4.04969 4.18879 4.08123 3.99428 3.81593 3.60573 3.29373 3.04986 2.946 2.8937 2.92169 2.98631 3.05299 3.09808 3.21392 3.27316 3.4323 3.54371 3.71353 3.86107 4.07545 4.21698 4.37711 4.49103 4.51776 4.69041 4.73144 4.86472 4.85585 4.78995 4.58675 4.10334 3.82859 3.52334 3.35234 3.2596 3.2546 3.23951 3.23748 3.25854 3.30202 3.40822 3.4562 3.55569 3.71251 3.84737 3.80662 3.87206 3.81927 3.89207 3.80398 3.9049 3.84708 3.76778 3.66891 3.65458 3.62081 3.46664 3.71073 3.69448 3.84051
260.5225 0.00025 4.22023 4.00408 3.77 3.22504 3.38158 3.36646 3.28614 3.17279 3.17105 3.36355 3.40425 3.32476 3.42285 3.48603 3.45904 3.44114 3.27356 3.29636 3.27192 3.30783 3.1846 3.0584 3.05595 3.1275 3.22466 3.34549 3.3727 3.54451 3.69426 3.6726 3.60118 3.59217 3.47863 3.38332 3.31602 3.28271 3.44264 3.77868 3.90391 4.06365 4.24779 4.13533 4.07572 3.87305 3.65658 3.332 3.0756 2.95852 2.90175 2.93325 2.99483 3.05324 3.09096 3.20284 3.26339 3.41756 3.52692 3.70302 3.84782 4.06313 4.20246 4.35306 4.48278 4.49691 4.67158 4.72145 4.86058 4.87417 4.82132 4.67889 4.21169 3.91867 3.60268 3.39476 3.27235 3.24978 3.24154 3.24255 3.26879 3.31205 3.41189 3.4547 3.53866 3.68977 3.85345 3.81952 3.87376 3.82971 3.89801 3.80311 3.89379 3.85475 3.77716 3.67739 3.67393 3.61675 3.45539 3.69432 3.68188 3.83251
260.525 0.00025 4.18494 4.03368 3.7309 3.2091 3.38137 3.35032 3.27309 3.19812 3.19408 3.3432 3.4212 3.30287 3.39234 3.47946 3.45607 3.44001 3.267 3.27426 3.25208 3.30387 3.1928 3.06022 3.05864 3.13339 3.21693 3.34025 3.36505 3.51996 3.66438 3.66673 3.62042 3.61365 3.47186 3.39129 3.30921 3.28095 3.42785 3.78877 3.90802 4.0751 4.29553 4.19063 4.15896 3.94206 3.70973 3.3744 3.10498 2.97219 2.91039 2.9447 3.00326 3.05491 3.0854 3.19281 3.25198 3.40106 3.50885 3.6921 3.83451 4.05097 4.19017 4.32925 4.47529 4.4785 4.65278 4.70997 4.85177 4.88696 4.84436 4.75877 4.32147 4.01215 3.6889 3.44304 3.2924 3.24529 3.24236 3.24702 3.27874 3.32199 3.41512 3.45308 3.52238 3.66624 3.85631 3.83405 3.87709 3.84148 3.90417 3.80369 3.88156 3.86062 3.78648 3.68652 3.69422 3.61236 3.4462 3.67757 3.66981 3.82338
260.5275 0.00025 4.14367 4.06264 3.69304 3.19952 3.37965 3.33549 3.25645 3.22317 3.21909 3.31586 3.43909 3.28949 3.36507 3.4733 3.45181 3.43271 3.26451 3.25711 3.2328 3.29673 3.2001 3.06573 3.06266 3.14168 3.20699 3.333 3.35914 3.49998 3.63173 3.6544 3.63973 3.63225 3.46748 3.3993 3.30274 3.28092 3.41086 3.79137 3.90934 4.08623 4.32864 4.2481 4.23585 4.02598 3.76673 3.4215 3.13792 2.9873 2.91991 2.95597 3.01138 3.05779 3.08152 3.18395 3.23912 3.38311 3.48935 3.68056 3.82099 4.03907 4.17936 4.30637 4.46827 4.4627 4.63472 4.69794 4.83912 4.89448 4.86026 4.825 4.43008 4.10909 3.78107 3.49752 3.32037 3.24229 3.24207 3.25074 3.28822 3.33179 3.41793 3.45125 3.50685 3.64257 3.85562 3.84976 3.88232 3.85455 3.91049 3.80607 3.86857 3.86424 3.79572 3.6961 3.71504 3.60768 3.43879 3.66043 3.65822 3.81316
260.53 0.00025 4.10277 4.08855 3.65841 3.19598 3.37318 3.3213 3.23638 3.24654 3.24391 3.28672 3.45439 3.28678 3.34477 3.46819 3.44654 3.41999 3.26625 3.24347 3.21637 3.28533 3.20604 3.07439 3.06783 3.15209 3.1965 3.32324 3.35411 3.48417 3.59672 3.63711 3.65781 3.64688 3.46673 3.40657 3.29661 3.28254 3.3933 3.78691 3.90879 4.09868 4.34632 4.30735 4.29871 4.12481 3.83035 3.47398 3.17419 3.00423 2.93045 2.96677 3.01911 3.06161 3.07901 3.17629 3.22518 3.36394 3.46849 3.66801 3.8068 4.02727 4.16972 4.28479 4.4614 4.44922 4.61807 4.68612 4.82375 4.89655 4.86997 4.87671 4.5348 4.20872 3.87796 3.559 3.35637 3.24228 3.24082 3.2536 3.29708 3.34148 3.42036 3.44922 3.49221 3.6195 3.85129 3.86579 3.88957 3.86879 3.91704 3.81042 3.85532 3.86535 3.80473 3.70604 3.73594 3.60309 3.43326 3.64291 3.64714 3.80302
260.5325 0.00025 4.06645 4.10185 3.62925 3.19611 3.35976 3.30661 3.21539 3.26802 3.26489 3.25968 3.46095 3.29458 3.33382 3.46492 3.44137 3.40411 3.27127 3.23134 3.20282 3.26907 3.20988 3.08541 3.07416 3.16351 3.18668 3.31093 3.34945 3.47228 3.56063 3.61729 3.673 3.65711 3.46965 3.41224 3.29137 3.28545 3.37647 3.77554 3.90815 4.11212 4.35062 4.36777 4.34495 4.23307 3.90463 3.53256 3.21392 3.02338 2.94217 2.9769 3.02633 3.06605 3.07802 3.16979 3.21036 3.34389 3.44651 3.65408 3.79201 4.01514 4.16106 4.26474 4.45463 4.43783 4.60311 4.6753 4.80654 4.89351 4.87462 4.91418 4.63325 4.30999 3.97856 3.62827 3.40003 3.24677 3.23893 3.25547 3.30503 3.35109 3.42241 3.44699 3.47851 3.59755 3.84347 3.88127 3.89907 3.88403 3.92388 3.81699 3.84227 3.86367 3.81348 3.7163 3.75647 3.59908 3.42941 3.62521 3.63656 3.79404
260.535 0.00025 4.03582 4.09487 3.60491 3.19926 3.33866 3.29006 3.1963 3.28728 3.28067 3.23833 3.45449 3.31154 3.33175 3.46402 3.43634 3.38724 3.277 3.22053 3.19107 3.24851 3.21062 3.09823 3.08208 3.17516 3.17853 3.29601 3.34428 3.46272 3.52455 3.5965 3.68337 3.66281 3.4755 3.41638 3.28708 3.28933 3.36149 3.75805 3.90852 4.1258 4.34565 4.42697 4.37749 4.33954 3.99399 3.59807 3.25714 3.04515 2.95525 2.98628 3.03293 3.07091 3.07838 3.16447 3.19539 3.32326 3.42363 3.63855 3.77683 4.00202 4.15279 4.24584 4.4479 4.4283 4.58975 4.66612 4.78889 4.88577 4.87457 4.93812 4.72275 4.41153 4.08177 3.70584 3.45057 3.25739 3.23705 3.25635 3.31192 3.36047 3.42394 3.44452 3.46577 3.57714 3.83246 3.89516 3.91086 3.90015 3.93122 3.82598 3.83013 3.8591 3.82182 3.72669 3.77626 3.59575 3.42714 3.60752 3.62647 3.78688
260.5375 0.00025 4.015 4.07188 3.5829 3.20245 3.31079 3.27146 3.18175 3.30477 3.2914 3.22328 3.43248 3.33452 3.33586 3.46517 3.4319 3.37189 3.28072 3.21325 3.1809 3.22515 3.20779 3.1124 3.092 3.18612 3.17206 3.279 3.33867 3.45428 3.48966 3.57631 3.68772 3.66431 3.48319 3.41938 3.28359 3.29345 3.34887 3.73628 3.91033 4.1371 4.33678 4.4814 4.40159 4.42949 4.10153 3.67209 3.30408 3.07005 2.9701 2.99512 3.03911 3.0761 3.07989 3.16015 3.18076 3.30227 3.40023 3.62112 3.76128 3.98763 4.14488 4.2273 4.44093 4.42109 4.57784 4.65872 4.77151 4.87412 4.87035 4.95018 4.80074 4.51166 4.18617 3.7915 3.50756 3.27559 3.23584 3.25633 3.31752 3.36958 3.42501 3.44183 3.45406 3.55867 3.81874 3.90641 3.9249 3.91694 3.93908 3.83734 3.81939 3.85172 3.82961 3.73713 3.79476 3.59323 3.42619 3.58983 3.61689 3.78187
260.54 0.00025 4.0023 4.03543 3.56455 3.20424 3.27752 3.25283 3.172 3.32086 3.29765 3.21408 3.39744 3.36022 3.34306 3.46791 3.42877 3.35951 3.28 3.21076 3.17478 3.20109 3.20179 3.12743 3.10359 3.19566 3.16751 3.26098 3.33217 3.44537 3.45681 3.55792 3.68555 3.66192 3.4914 3.42198 3.28105 3.29742 3.33923 3.71165 3.91309 4.14394 4.32797 4.52663 4.42423 4.49191 4.22605 3.75682 3.35577 3.09852 2.98668 3.00346 3.04471 3.08145 3.0822 3.15653 3.16688 3.28107 3.37666 3.60178 3.74549 3.97166 4.13696 4.20858 4.43285 4.41635 4.5671 4.6532 4.75554 4.85963 4.86229 4.9523 4.86478 4.60882 4.29027 3.88408 3.57077 3.3025 3.23627 3.25557 3.32162 3.37827 3.42552 3.43886 3.44348 3.54225 3.80302 3.91417 3.94096 3.93412 3.9474 3.85109 3.81051 3.84174 3.83652 3.74736 3.81158 3.5917 3.42653 3.57242 3.60776 3.77924
260.5425 0.00025 3.99749 3.99207 3.54756 3.20352 3.24041 3.23539 3.1661 3.33627 3.30027 3.20948 3.35519 3.38522 3.35129 3.47048 3.42789 3.35088 3.27405 3.2116 3.17488 3.17751 3.19424 3.14208 3.11643 3.20285 3.16426 3.24258 3.32465 3.4348 3.42662 3.54176 3.6773 3.65606 3.49894 3.42486 3.27962 3.30044 3.33249 3.68585 3.9153 4.14567 4.32176 4.55935 4.4503 4.52405 4.35945 3.85494 3.41344 3.1311 3.00527 3.01146 3.04975 3.08676 3.08511 3.15341 3.15397 3.25998 3.35328 3.5803 3.72896 3.95417 4.12892 4.18951 4.42313 4.41468 4.55747 4.64935 4.74171 4.84354 4.85118 4.94651 4.91309 4.70146 4.39266 3.98186 3.64057 3.33874 3.23936 3.25434 3.32419 3.38646 3.42562 3.43569 3.43403 3.52802 3.78606 3.91764 3.95869 3.95148 3.95622 3.86709 3.80408 3.82947 3.84228 3.75741 3.82648 3.5912 3.42786 3.55551 3.59896 3.77802
260.545 0.00025 3.99962 3.93925 3.5326 3.20012 3.20289 3.21812 3.16329 3.35064 3.30001 3.20989 3.31329 3.40557 3.36128 3.47124 3.42897 3.34508 3.26327 3.21335 3.18083 3.15502 3.1873 3.15399 3.13043 3.20762 3.16191 3.2245 3.31589 3.42171 3.39981 3.52841 3.66375 3.64709 3.50478 3.42869 3.27925 3.30251 3.32867 3.65943 3.91457 4.14215 4.31887 4.5778 4.48155 4.53292 4.48528 3.96862 3.47902 3.16847 3.02635 3.01959 3.05399 3.09189 3.0885 3.15052 3.14229 3.23945 3.33063 3.55712 3.71175 3.9355 4.12039 4.17022 4.4105 4.41575 4.54909 4.64687 4.73026 4.82724 4.83791 4.93509 4.94499 4.78769 4.49179 4.08258 3.71763 3.38436 3.24642 3.25295 3.32522 3.39393 3.42517 3.43232 3.42575 3.5159 3.76861 3.91645 3.97741 3.96864 3.9655 3.88526 3.80056 3.8154 3.84672 3.76746 3.83917 3.59162 3.43005 3.53939 3.59065 3.77757
260.5475 0.00025 4.00529 3.88787 3.51651 3.19749 3.16729 3.1987 3.16308 3.36299 3.29811 3.2152 3.27825 3.41772 3.37551 3.46946 3.43146 3.34091 3.24898 3.21502 3.18944 3.13468 3.18213 3.16129 3.14509 3.21036 3.1598 3.20734 3.30606 3.40549 3.37712 3.51717 3.64631 3.63546 3.50824 3.43394 3.28042 3.30313 3.32775 3.63335 3.90855 4.13518 4.31831 4.58439 4.51504 4.52995 4.58527 4.09821 3.55497 3.21151 3.05024 3.02812 3.05756 3.09672 3.09201 3.14761 3.13185 3.21982 3.30881 3.53284 3.69328 3.91585 4.11075 4.15048 4.39405 4.41875 4.54241 4.6453 4.72112 4.81189 4.82315 4.91987 4.9611 4.86569 4.58652 4.18372 3.80252 3.4391 3.25888 3.25175 3.32481 3.40049 3.42422 3.42891 3.41873 3.50582 3.75133 3.91048 3.99646 3.98553 3.97527 3.90532 3.80033 3.80006 3.84939 3.77724 3.84956 3.59299 3.43286 3.52414 3.58255 3.77712
260.55 0.00025 4.01596 3.84444 3.49993 3.19728 3.13506 3.176 3.16643 3.37098 3.29702 3.22566 3.25531 3.4197 3.39563 3.46494 3.43421 3.33746 3.23313 3.21807 3.19658 3.11731 3.17859 3.16306 3.15961 3.21173 3.15747 3.19152 3.29603 3.38691 3.3595 3.50721 3.62631 3.62135 3.50934 3.44075 3.28346 3.30242 3.3298 3.60816 3.89542 4.12621 4.31787 4.58224 4.54665 4.5274 4.64595 4.23909 3.64362 3.26136 3.07767 3.03745 3.06049 3.1012 3.09545 3.14431 3.12246 3.20151 3.28779 3.50807 3.6733 3.89596 4.09989 4.13061 4.37324 4.42205 4.53818 4.64438 4.71401 4.79863 4.80763 4.90242 4.96285 4.93329 4.67596 4.2829 3.89508 3.50215 3.27812 3.25126 3.32311 3.40584 3.42273 3.42546 3.41289 3.49755 3.73478 3.89993 4.01489 4.0019 3.98561 3.92688 3.80365 3.78402 3.85024 3.78681 3.85759 3.59526 3.43617 3.50998 3.57488 3.77691
260.5525 0.00025 4.02895 3.80812 3.48055 3.20064 3.10725 3.1499 3.17508 3.3723 3.29819 3.24108 3.24679 3.41329 3.42069 3.45878 3.43688 3.33562 3.21875 3.2243 3.19954 3.10415 3.17585 3.16018 3.17331 3.21199 3.15424 3.17832 3.28632 3.36638 3.34687 3.49742 3.60515 3.60521 3.50854 3.4482 3.28871 3.30069 3.33462 3.584 3.87487 4.1152 4.31618 4.57532 4.57093 4.53298 4.665 4.38127 3.74684 3.31942 3.10926 3.04794 3.06287 3.10523 3.09867 3.14049 3.11419 3.1852 3.26782 3.48343 3.65114 3.87588 4.08754 4.11075 4.3483 4.42328 4.5366 4.64382 4.70849 4.78849 4.79208 4.88442 4.95293 4.98856 4.75958 4.3778 3.994 3.57298 3.30544 3.25211 3.32051 3.40974 3.42055 3.42214 3.40814 3.49087 3.71949 3.88565 4.03178 4.01749 3.99651 3.94954 3.81091 3.76802 3.84914 3.79589 3.86318 3.59833 3.43974 3.49691 3.56743 3.77684
260.555 0.00025 4.04231 3.78196 3.45924 3.20672 3.08629 3.12156 3.19012 3.36682 3.30286 3.2615 3.25302 3.4037 3.4468 3.45205 3.43922 3.33489 3.20861 3.23216 3.19662 3.09547 3.17225 3.15356 3.18634 3.21112 3.15015 3.16897 3.2771 3.34448 3.33933 3.48709 3.58413 3.58748 3.50616 3.45458 3.29642 3.2986 3.34194 3.56041 3.84779 4.10199 4.31237 4.56544 4.58476 4.55084 4.65088 4.50864 3.86451 3.3873 3.1458 3.06026 3.06493 3.10876 3.10159 3.13592 3.10678 3.1712 3.24905 3.45952 3.62705 3.85561 4.07418 4.09129 4.32008 4.41994 4.53727 4.64369 4.70399 4.78169 4.77706 4.86712 4.93487 5.02977 4.83674 4.46656 4.09694 3.65139 3.34195 3.25501 3.31731 3.41195 3.41768 3.41903 3.40454 3.48556 3.70547 3.86833 4.04614 4.03224 4.00814 3.9729 3.82217 3.75255 3.8461 3.80434 3.86648 3.60212 3.4436 3.48516 3.56025 3.77795
260.5575 0.00025 4.06003 3.76411 3.43596 3.21322 3.07458 3.09437 3.21084 3.35546 3.31095 3.28686 3.27227 3.39619 3.46967 3.44712 3.44122 3.33418 3.20478 3.23896 3.18799 3.09128 3.16698 3.14494 3.19786 3.20859 3.14562 3.16443 3.26877 3.32216 3.33609 3.47545 3.56384 3.56859 3.50288 3.45854 3.30686 3.29727 3.35121 3.53697 3.81561 4.0858 4.3065 4.55291 4.58744 4.57927 4.61975 4.60447 3.99354 3.4665 3.18836 3.07528 3.06704 3.11162 3.10418 3.13055 3.09985 3.15972 3.23149 3.43654 3.60176 3.83436 4.05996 4.07239 4.2902 4.41057 4.53928 4.64448 4.70034 4.77816 4.763 4.85088 4.91212 5.05582 4.9069 4.54804 4.20065 3.73733 3.38829 3.26087 3.31385 3.41231 3.41404 3.41614 3.40208 3.48152 3.69288 3.84903 4.05719 4.04591 4.02067 3.9966 3.83752 3.73841 3.84129 3.81178 3.86781 3.60671 3.44747 3.47476 3.55323 3.78147
260.56 0.00025 4.08081 3.74981 3.41191 3.21735 3.07116 3.07104 3.23505 3.33971 3.321 3.31531 3.30117 3.39575 3.4865 3.44684 3.44297 3.33213 3.20754 3.24178 3.17536 3.09103 3.15991 3.13567 3.20739 3.20422 3.14115 3.16451 3.26059 3.30022 3.33581 3.46238 3.5446 3.54873 3.49854 3.45927 3.32035 3.29819 3.36137 3.51359 3.78014 4.06549 4.29746 4.53721 4.58122 4.61254 4.5875 4.65958 4.12669 3.55795 3.23812 3.09391 3.06957 3.11377 3.10642 3.12449 3.09318 3.15088 3.21561 3.41466 3.57631 3.81131 4.04488 4.05396 4.25984 4.39426 4.5402 4.64589 4.69732 4.77767 4.75065 4.8359 4.88819 5.06681 4.96918 4.6218 4.30155 3.83048 3.44471 3.27089 3.31054 3.4107 3.40956 3.41336 3.40078 3.47852 3.68158 3.82885 4.06409 4.05802 4.03402 4.02026 3.85702 3.72623 3.83501 3.81774 3.86735 3.61189 3.45121 3.46558 3.5467 3.78713
260.5625 0.00025 4.10765 3.74001 3.38756 3.2174 3.07381 3.0535 3.2591 3.322 3.33135 3.34472 3.33578 3.40452 3.4974 3.45321 3.44549 3.32885 3.21552 3.24044 3.16151 3.09364 3.15142 3.12757 3.21436 3.19817 3.13764 3.16815 3.25257 3.27948 3.337 3.44789 3.52601 3.5285 3.4927 3.4563 3.33669 3.30249 3.37121 3.49097 3.74315 4.04105 4.28484 4.51832 4.56962 4.64343 4.5647 4.67344 4.25306 3.66105 3.296 3.11723 3.07299 3.11526 3.10818 3.1179 3.08655 3.14444 3.20151 3.39397 3.55165 3.78636 4.02897 4.03602 4.23003 4.37158 4.53753 4.64714 4.69461 4.77943 4.74058 4.82185 4.86583 5.06473 5.02272 4.68824 4.39639 3.93015 3.51093 3.28632 3.3077 3.40723 3.4043 3.41065 3.40073 3.47638 3.67152 3.80896 4.06637 4.06817 4.04821 4.0436 3.8805 3.71653 3.8275 3.82176 3.86548 3.61757 3.45469 3.45767 3.54046 3.7941
260.565 0.00025 4.13487 3.73659 3.36512 3.21466 3.07868 3.04224 3.27914 3.30481 3.33941 3.37353 3.37183 3.42199 3.50264 3.466 3.44952 3.32546 3.22608 3.23655 3.14933 3.09828 3.14198 3.12123 3.21876 3.19034 3.13506 3.1736 3.24519 3.26065 3.33832 3.43254 3.50757 3.508 3.48467 3.45043 3.35546 3.31089 3.37969 3.46964 3.70526 4.0121 4.26791 4.49589 4.55597 4.66579 4.55675 4.65525 4.35978 3.77293 3.36283 3.14655 3.0779 3.11623 3.10943 3.111 3.07985 3.1402 3.18923 3.37427 3.52783 3.75981 4.01189 4.01898 4.20156 4.34391 4.5293 4.64754 4.6924 4.78289 4.73369 4.80872 4.84658 5.05232 5.06602 4.74767 4.48251 4.03439 3.58663 3.30863 3.30576 3.40198 3.39824 3.40784 3.40209 3.47496 3.66249 3.79039 4.0635 4.07578 4.06313 4.06633 3.90764 3.70984 3.81941 3.82342 3.8623 3.62358 3.4578 3.4511 3.53467 3.80167
260.5675 0.00025 4.16195 3.74011 3.34661 3.2108 3.08279 3.03662 3.29242 3.29125 3.34344 3.4007 3.4065 3.44615 3.50393 3.48334 3.45477 3.32244 3.23738 3.23308 3.13945 3.10394 3.13215 3.11666 3.22157 3.18079 3.13342 3.17879 3.23878 3.24397 3.33824 3.41698 3.48908 3.48742 3.47366 3.44288 3.37614 3.32339 3.38614 3.45035 3.66788 3.97933 4.24656 4.46975 4.54219 4.67687 4.56318 4.61886 4.43699 3.88818 3.43843 3.18311 3.08523 3.11676 3.11 3.10413 3.07293 3.13789 3.17878 3.35572 3.50549 3.73257 3.99291 4.00288 4.1752 4.31346 4.51406 4.64538 4.69029 4.78715 4.72981 4.79618 4.83078 5.03365 5.09814 4.80086 4.55835 4.14028 3.67158 3.33913 3.30525 3.39516 3.3913 3.40467 3.40496 3.47395 3.65424 3.77398 4.05541 4.08031 4.07848 4.08843 3.93824 3.70657 3.81122 3.82239 3.85818 3.62981 3.4604 3.44574 3.52911 3.80829
260.57 0.00025 4.18426 3.74943 3.33211 3.20679 3.08669 3.03545 3.29686 3.2839 3.3408 3.42415 3.43649 3.47345 3.50252 3.50293 3.46221 3.32017 3.24782 3.23269 3.13154 3.10946 3.12228 3.11372 3.22289 3.16951 3.13223 3.18173 3.23358 3.22969 3.33554 3.40174 3.47028 3.46672 3.45925 3.43446 3.3982 3.33921 3.39081 3.43346 3.63141 3.9435 4.221 4.43921 4.52815 4.67723 4.5796 4.5777 4.48059 3.99946 3.52162 3.22786 3.096 3.11711 3.10983 3.09747 3.06585 3.13712 3.17005 3.33836 3.48501 3.70546 3.97171 3.98778 4.15088 4.28221 4.4918 4.63907 4.68721 4.79149 4.7291 4.78458 4.81777 5.01244 5.11898 4.84848 4.6241 4.24421 3.76524 3.3791 3.30681 3.38705 3.38355 3.40088 3.40952 3.47339 3.6467 3.76038 4.04212 4.08132 4.09383 4.10965 3.97177 3.70709 3.80351 3.81845 3.85321 3.63602 3.46228 3.44144 3.52394 3.81383
260.5725 0.00025 4.19969 3.76014 3.32081 3.202 3.09314 3.03812 3.2938 3.28459 3.33075 3.44132 3.45855 3.50094 3.50112 3.52224 3.47183 3.31855 3.25683 3.2373 3.12507 3.11404 3.11288 3.11293 3.22122 3.15684 3.13131 3.18106 3.22941 3.21805 3.3293 3.38749 3.45135 3.44601 3.44163 3.42613 3.4207 3.3568 3.39364 3.41889 3.59665 3.90521 4.19121 4.40477 4.51264 4.66959 4.6001 4.54162 4.49338 4.09937 3.61032 3.28139 3.1114 3.11757 3.10901 3.09113 3.05878 3.13776 3.16286 3.32224 3.4667 3.67871 3.94798 3.97328 4.12845 4.25155 4.46301 4.62732 4.68187 4.79506 4.73117 4.77457 4.80669 4.99148 5.12933 4.89055 4.68059 4.34259 3.86667 3.42945 3.31117 3.37797 3.37504 3.3963 3.41571 3.47309 3.63962 3.75003 4.02378 4.07838 4.10869 4.12982 4.00769 3.71169 3.79691 3.81167 3.84754 3.642 3.46339 3.43795 3.51898 3.81706
260.575 0.00025 4.20463 3.77372 3.3127 3.19637 3.10378 3.04375 3.28524 3.2932 3.3156 3.44988 3.47099 3.52643 3.50286 3.53865 3.48376 3.31804 3.26319 3.2472 3.12015 3.11701 3.1047 3.1146 3.21492 3.14359 3.13068 3.17684 3.22641 3.20947 3.31884 3.37471 3.43269 3.42504 3.42125 3.41861 3.44326 3.37477 3.39534 3.40677 3.56476 3.86562 4.15742 4.36644 4.49415 4.65743 4.61877 4.51547 4.48237 4.18087 3.70083 3.34305 3.13284 3.11871 3.10782 3.08537 3.05184 3.13925 3.15705 3.30739 3.45018 3.65295 3.92209 3.95896 4.10773 4.22276 4.42958 4.60958 4.67287 4.79683 4.73538 4.76683 4.79651 4.97197 5.13079 4.92682 4.72926 4.43205 3.97414 3.49102 3.3195 3.36838 3.36586 3.39075 3.42349 3.47306 3.633 3.74306 4.0009 4.07131 4.1222 4.14873 4.04539 3.72062 3.79208 3.8022 3.84101 3.64754 3.46384 3.43532 3.51448 3.81817
260.5775 0.00025 4.19714 3.78664 3.30992 3.18908 3.12052 3.05299 3.27381 3.30789 3.29879 3.44901 3.47266 3.54807 3.50858 3.55112 3.49709 3.32004 3.26622 3.26085 3.11724 3.11883 3.09815 3.11821 3.20348 3.13048 3.13033 3.16928 3.22421 3.20419 3.3042 3.36338 3.4144 3.4039 3.39944 3.41275 3.46525 3.39191 3.39647 3.39688 3.53626 3.82632 4.1203 4.32523 4.47121 4.64345 4.63169 4.50068 4.45756 4.23977 3.78857 3.41064 3.16163 3.12136 3.10647 3.08034 3.04526 3.14111 3.15242 3.2936 3.4348 3.62901 3.89461 3.94446 4.08843 4.19643 4.39362 4.58603 4.65898 4.79551 4.74091 4.76215 4.78689 4.95441 5.12598 4.95746 4.7719 4.51061 4.08467 3.56394 3.33304 3.35876 3.3561 3.38408 3.43264 3.47347 3.62671 3.73937 3.97427 4.06021 4.13364 4.16607 4.08417 3.73378 3.78951 3.79059 3.83374 3.65241 3.46355 3.43317 3.51036 3.81747
260.58 0.00025 4.18097 3.79475 3.31102 3.1798 3.14394 3.06648 3.26088 3.32539 3.28538 3.43964 3.46463 3.5642 3.51819 3.5589 3.51132 3.32588 3.26587 3.27548 3.11828 3.12065 3.09407 3.12208 3.18833 3.11805 3.13006 3.15942 3.22277 3.20201 3.28563 3.3532 3.39684 3.38321 3.3782 3.4089 3.48521 3.40707 3.39755 3.38873 3.51172 3.78944 4.08151 4.28289 4.44262 4.62771 4.63633 4.49514 4.42795 4.2759 3.86947 3.48138 3.19873 3.12661 3.10509 3.07629 3.03934 3.14286 3.14874 3.28096 3.41994 3.60732 3.86564 3.92902 4.07025 4.17297 4.35725 4.55719 4.63959 4.78961 4.74618 4.76084 4.77776 4.93742 5.11692 4.98285 4.81017 4.57752 4.19454 3.64824 3.3534 3.34963 3.34592 3.37619 3.44263 3.47445 3.62088 3.73866 3.9449 4.0453 4.14237 4.18157 4.12345 3.75123 3.78954 3.77751 3.82567 3.65659 3.46269 3.43128 3.50685 3.81622
260.5825 0.00025 4.15912 3.79504 3.31594 3.16932 3.17443 3.08445 3.2488 3.34149 3.27957 3.42392 3.44706 3.57193 3.53178 3.56229 3.52532 3.3365 3.26243 3.28706 3.12378 3.12347 3.09313 3.12447 3.17163 3.10747 3.1298 3.14838 3.22224 3.20207 3.26424 3.3437 3.37974 3.3637 3.35938 3.40735 3.50187 3.41954 3.39865 3.38211 3.49073 3.75562 4.04278 4.2419 4.40897 4.61033 4.63264 4.4961 4.40045 4.29142 3.94034 3.5516 3.24361 3.13568 3.10419 3.07342 3.03427 3.14383 3.14589 3.26952 3.40552 3.58783 3.83605 3.91225 4.05273 4.15208 4.32197 4.52427 4.6145 4.77772 4.74923 4.76291 4.77024 4.91987 5.1051 5.00331 4.8455 4.63358 4.29949 3.74336 3.38242 3.34154 3.33551 3.36712 3.45295 3.47605 3.61555 3.74048 3.91394 4.02698 4.14771 4.19481 4.16236 3.77291 3.79254 3.76391 3.8168 3.65994 3.46128 3.42934 3.5039 3.81561
260.585 0.00025 4.13604 3.78754 3.32661 3.15992 3.20931 3.10451 3.2392 3.35435 3.28366 3.40522 3.42029 3.56882 3.55004 3.56121 3.53855 3.35104 3.25583 3.293 3.13253 3.12745 3.09545 3.12456 3.1552 3.09949 3.12922 3.13688 3.22281 3.20294 3.24173 3.33392 3.36314 3.34639 3.34449 3.40794 3.514 3.42926 3.39968 3.37696 3.47302 3.72599 4.00518 4.20421 4.37093 4.59099 4.62227 4.50002 4.37918 4.29067 3.99897 3.61814 3.2945 3.14996 3.10438 3.07199 3.03016 3.14375 3.14371 3.25906 3.39127 3.56935 3.80682 3.89399 4.03521 4.13313 4.28898 4.48913 4.58436 4.75933 4.7478 4.7676 4.76522 4.90055 5.09118 5.01915 4.87848 4.68092 4.39585 3.84771 3.42195 3.33531 3.32522 3.35714 3.46292 3.47846 3.61089 3.74402 3.88252 4.00578 4.14927 4.20545 4.20017 3.79853 3.79869 3.75072 3.80684 3.66236 3.45951 3.42705 3.50174 3.81666
260.5875 0.00025 4.11536 3.77275 3.34304 3.15412 3.24379 3.12456 3.23302 3.36377 3.29693 3.38626 3.38408 3.55167 3.57094 3.55553 3.5502 3.36854 3.24671 3.29386 3.14283 3.13206 3.10059 3.12259 3.14079 3.09474 3.12789 3.12562 3.22444 3.20285 3.21961 3.3232 3.34703 3.33245 3.33428 3.41075 3.5207 3.43589 3.40018 3.37334 3.45839 3.70037 3.97095 4.17177 4.33035 4.56881 4.60644 4.50408 4.36635 4.27883 4.04435 3.67887 3.34806 3.17052 3.10648 3.07236 3.02721 3.14236 3.14173 3.24939 3.3774 3.55081 3.77945 3.87456 4.01718 4.11581 4.25899 4.45324 4.55014 4.73485 4.73986 4.77315 4.76376 4.87934 5.0751 5.03065 4.90951 4.72234 4.4813 3.95871 3.47365 3.33188 3.31526 3.34637 3.47186 3.48189 3.60726 3.74839 3.85174 3.98234 4.14679 4.2129 4.23604 3.82776 3.8081 3.73922 3.79584 3.6638 3.45749 3.42435 3.50046 3.81896
260.59 0.00025 4.09694 3.75615 3.36708 3.15251 3.27184 3.142 3.23077 3.3704 3.31591 3.36852 3.34125 3.52046 3.58841 3.54624 3.55973 3.38646 3.23674 3.29146 3.15332 3.13786 3.10815 3.11847 3.13014 3.09349 3.12533 3.1156 3.2269 3.20036 3.19918 3.31079 3.33168 3.32223 3.32876 3.41542 3.52115 3.43962 3.39957 3.37144 3.44612 3.67822 3.94057 4.14482 4.2901 4.54255 4.58636 4.50609 4.36156 4.2602 4.0767 3.73294 3.40039 3.19766 3.11142 3.07483 3.02563 3.13976 3.13983 3.24068 3.36398 3.53169 3.75408 3.85409 3.99789 4.0992 4.23231 4.41791 4.51292 4.70478 4.72414 4.77729 4.76653 4.85725 5.05624 5.03746 4.93839 4.76071 4.55472 4.07256 3.53867 3.33255 3.30593 3.335 3.47889 3.48635 3.60498 3.75287 3.82261 3.95734 4.14045 4.21682 4.2693 3.86005 3.82082 3.73055 3.78374 3.66421 3.45527 3.42084 3.49981 3.8212
260.5925 0.00025 4.07928 3.74278 3.40016 3.15604 3.28891 3.15624 3.23163 3.3761 3.33561 3.35226 3.29729 3.47889 3.59667 3.53513 3.56712 3.40122 3.22867 3.28781 3.16238 3.14557 3.1171 3.11277 3.12483 3.09523 3.12131 3.10701 3.22894 3.19516 3.18125 3.29657 3.31787 3.31561 3.32789 3.42116 3.51553 3.44097 3.3969 3.37069 3.4362 3.66019 3.91523 4.12289 4.2534 4.51219 4.56299 4.50453 4.36407 4.23901 4.09712 3.78066 3.44838 3.2307 3.11999 3.0797 3.0255 3.13604 3.13754 3.23275 3.3507 3.51273 3.73037 3.83296 3.97727 4.08255 4.20891 4.38377 4.47408 4.6703 4.70051 4.77682 4.77307 4.83572 5.03376 5.03941 4.96528 4.79859 4.6164 4.18481 3.61724 3.33905 3.29748 3.32341 3.48354 3.49193 3.60428 3.75628 3.79596 3.93148 4.13054 4.21682 4.29911 3.89479 3.83658 3.72568 3.77076 3.66357 3.45288 3.41638 3.49994 3.82313