260.5025 0.00025 0.126189 0.101113 0.0504714 0.000966042 -0.00812985 -0.0129784 -0.0219608 -0.020015 -0.0219732 -0.0177068 -0.0234204 -0.0347177 -0.027383 -0.0293926 -0.0241795 -0.0237583 -0.0278638 -0.0244468 -0.0243792 -0.013852 -0.00926463 -0.0141815 -0.0086831 -0.00531002 -0.00671788 -0.00559313 -0.00511165 -0.00685372 -0.00376641 0.000317307 0.00309768 0.00469237 0.00272252 -0.000589995 -0.00103128 -0.00196258 -0.000865219 0.00175837 -0.00121496 0.000687157 0.00598019 0.00638522 0.00889536 0.0129285 0.015448 0.0157016 0.0146827 0.0137868 0.0108137 0.00630198 0.00538514 0.00484675 0.00427782 0.00467264 0.00422289 0.00291794 0.00238558 0.00563876 0.00972238 0.0120512 0.0122277 0.0126087 0.0128418 0.0122087 0.0146066 0.0166488 0.0181194 0.0186919 0.0174982 0.0163094 0.0184984 0.0233454 0.0266942 0.0315199 0.0340443 0.0374815 0.0395218 0.0383005 0.0398456 0.0405708 0.0402638 0.0401702 0.040684 0.0429123 0.0464942 0.049465 0.0516236 0.0552448 0.0582255 0.0604233 0.0611408 0.0649035 0.0676601 0.0712411 0.0769071 0.082216 0.0855832 0.0945377 0.0984634 0.113878
260.505 0.00025 0.330727 0.305278 0.254844 0.205078 0.196561 0.192475 0.183243 0.185329 0.183258 0.187425 0.182021 0.170242 0.177982 0.176032 0.180863 0.18129 0.177786 0.181415 0.181108 0.192285 0.196591 0.191255 0.197075 0.200745 0.199254 0.200292 0.201057 0.199375 0.20208 0.206125 0.20934 0.210897 0.208866 0.205774 0.205417 0.204103 0.204935 0.207686 0.204366 0.206427 0.212081 0.212376 0.214759 0.218848 0.221492 0.221928 0.221176 0.220309 0.217277 0.212579 0.211402 0.210944 0.210586 0.210992 0.210459 0.209302 0.208755 0.212031 0.215985 0.218512 0.218762 0.219084 0.219435 0.218815 0.221206 0.223425 0.224772 0.225251 0.224066 0.222955 0.225097 0.229852 0.233293 0.238049 0.240516 0.244102 0.246348 0.245136 0.24659 0.247377 0.246958 0.246883 0.24753 0.249709 0.253269 0.256216 0.258465 0.262061 0.264948 0.267258 0.267919 0.271542 0.274368 0.277997 0.283658 0.288904 0.292352 0.301308 0.305225 0.320625
260.5075 0.00025 0.483561 0.458108 0.407707 0.357366 0.349376 0.345029 0.335699 0.338017 0.335828 0.339381 0.334483 0.322502 0.330301 0.329103 0.333596 0.333828 0.330731 0.334503 0.333994 0.34526 0.348849 0.343411 0.349438 0.353306 0.35148 0.352444 0.353449 0.351553 0.353712 0.357716 0.361198 0.362769 0.360906 0.35819 0.357761 0.356161 0.35707 0.359996 0.356527 0.358428 0.364414 0.364827 0.367184 0.371162 0.373771 0.374356 0.373585 0.372804 0.369651 0.364922 0.363577 0.36324 0.363182 0.363365 0.36283 0.361575 0.361015 0.364456 0.368317 0.370821 0.371121 0.371336 0.371572 0.370772 0.373242 0.375523 0.376763 0.377258 0.376043 0.37492 0.377019 0.381696 0.385251 0.390013 0.392401 0.395998 0.398314 0.397102 0.398511 0.399369 0.398838 0.398795 0.399569 0.401723 0.405222 0.408162 0.410493 0.414078 0.416933 0.419385 0.420094 0.423643 0.42651 0.430183 0.435735 0.441013 0.444549 0.453497 0.45742 0.472816
260.51 0.00025 0.458007 0.432366 0.382117 0.332283 0.324196 0.319907 0.311217 0.314023 0.311084 0.313738 0.309133 0.29643 0.304556 0.304269 0.307978 0.307933 0.305034 0.308894 0.30796 0.319084 0.322372 0.31707 0.323011 0.326989 0.325201 0.326185 0.327384 0.325553 0.327236 0.331039 0.334871 0.336283 0.334479 0.332168 0.331944 0.330244 0.331102 0.334065 0.330192 0.331861 0.337965 0.338254 0.340483 0.344414 0.347048 0.347637 0.347104 0.346431 0.343169 0.338194 0.336594 0.33623 0.336383 0.336546 0.336018 0.334872 0.334246 0.337826 0.341476 0.343985 0.344432 0.34456 0.344883 0.344174 0.346553 0.348849 0.349949 0.350494 0.349234 0.348115 0.350143 0.354779 0.358505 0.36322 0.365577 0.369214 0.371644 0.370395 0.371713 0.372657 0.372059 0.37208 0.373005 0.375113 0.378556 0.381501 0.383932 0.387446 0.390204 0.392754 0.393449 0.396903 0.399889 0.403605 0.40912 0.414403 0.418064 0.426974 0.430947 0.446372
260.5125 0.00025 0.34962 0.323769 0.273556 0.224178 0.216158 0.212144 0.204332 0.207148 0.203846 0.205837 0.201508 0.188565 0.196616 0.196846 0.200159 0.199887 0.197581 0.20156 0.200626 0.211412 0.214361 0.209031 0.215012 0.219289 0.217454 0.218177 0.219656 0.218033 0.219194 0.222807 0.227097 0.228208 0.226113 0.224105 0.223905 0.22181 0.222247 0.225377 0.221579 0.222988 0.229444 0.229885 0.232096 0.236029 0.238486 0.239336 0.238803 0.238251 0.234859 0.229907 0.228093 0.227903 0.228375 0.228442 0.227857 0.226791 0.226318 0.229839 0.233336 0.23611 0.236714 0.236679 0.236957 0.236154 0.238492 0.240787 0.241786 0.242336 0.241126 0.239975 0.24196 0.246493 0.250334 0.255072 0.257429 0.261114 0.263737 0.262506 0.263665 0.264648 0.263999 0.264095 0.265153 0.267188 0.270507 0.273395 0.275987 0.279485 0.282153 0.284881 0.285533 0.288866 0.291921 0.295736 0.301165 0.306447 0.310164 0.319011 0.323045 0.338441
260.515 0.00025 0.277043 0.250968 0.200507 0.150314 0.143333 0.139136 0.131715 0.134003 0.130965 0.132294 0.128376 0.115257 0.12285 0.123604 0.126486 0.12583 0.124502 0.128827 0.127799 0.138556 0.140968 0.13576 0.141707 0.146199 0.144444 0.145102 0.146696 0.145265 0.146075 0.149187 0.153996 0.155051 0.153177 0.151672 0.151426 0.148965 0.149444 0.152554 0.148781 0.150038 0.156681 0.157046 0.158991 0.162966 0.165425 0.166257 0.165986 0.165471 0.162029 0.156888 0.154923 0.15474 0.155482 0.155477 0.154827 0.153706 0.15317 0.15688 0.16014 0.16281 0.163617 0.163456 0.163666 0.162794 0.16511 0.16747 0.168345 0.16891 0.167686 0.166466 0.168376 0.17276 0.176675 0.181452 0.183801 0.187496 0.190217 0.189013 0.190134 0.191159 0.190428 0.19056 0.191829 0.193774 0.196977 0.199892 0.202591 0.205996 0.208584 0.211525 0.212161 0.215387 0.21853 0.222417 0.227702 0.232981 0.236715 0.245488 0.24955 0.264881
260.5175 0.00025 0.235028 0.208747 0.158544 0.108789 0.100977 0.0971598 0.0905173 0.0930378 0.089927 0.0910862 0.0875629 0.0746624 0.0821248 0.0833864 0.0857891 0.084755 0.0841445 0.0884746 0.0875842 0.097804 0.0997542 0.0948547 0.100678 0.105337 0.10355 0.103923 0.105785 0.104498 0.104721 0.107661 0.112536 0.113627 0.111831 0.11056 0.110515 0.108022 0.108173 0.111359 0.107721 0.108716 0.115285 0.115688 0.117773 0.121631 0.124035 0.125061 0.124887 0.124541 0.121023 0.115784 0.113553 0.113407 0.114444 0.114333 0.11364 0.112586 0.11213 0.115757 0.118853 0.121577 0.12252 0.122292 0.122581 0.121799 0.124108 0.12644 0.12723 0.127974 0.126781 0.125484 0.127273 0.13156 0.135517 0.140197 0.142511 0.146183 0.148975 0.147829 0.148794 0.14988 0.149052 0.149228 0.150726 0.152741 0.155867 0.158803 0.161601 0.164936 0.16744 0.170556 0.171166 0.174202 0.177395 0.181358 0.186554 0.191886 0.195771 0.204541 0.208648 0.223954
260.52 0.00025 0.203165 0.176765 0.126723 0.0776088 0.0690373 0.0650151 0.0585152 0.060709 0.0573985 0.0582443 0.0543294 0.0415353 0.0484601 0.0501397 0.0523446 0.0515072 0.0516812 0.0561632 0.0551837 0.0647791 0.0662036 0.0620402 0.0674463 0.0721582 0.0704774 0.0705977 0.0725158 0.0712348 0.071023 0.0735232 0.0789763 0.079877 0.0781161 0.0772923 0.0772639 0.0745854 0.074601 0.077719 0.0743482 0.0753271 0.08205 0.0825199 0.084352 0.0881679 0.0903654 0.0913508 0.0913772 0.0910408 0.087431 0.0821401 0.0797802 0.0797219 0.0811185 0.0810524 0.0804677 0.0794262 0.0789224 0.0826386 0.0855163 0.0883025 0.0894602 0.0890361 0.0892479 0.0884906 0.0907079 0.0930406 0.0936595 0.0944673 0.093293 0.0919347 0.0936621 0.0978369 0.101901 0.106597 0.109022 0.112756 0.115698 0.114608 0.115428 0.116544 0.115677 0.115881 0.117577 0.119554 0.12255 0.125428 0.128292 0.13164 0.134095 0.137406 0.137993 0.140918 0.144126 0.148152 0.153242 0.158623 0.162598 0.171304 0.175434 0.190745
260.5225 0.00025 0.20589 0.179373 0.129042 0.0803936 0.0705873 0.0668465 0.0610179 0.0631314 0.0596626 0.0605523 0.0562779 0.0437224 0.050495 0.0529651 0.0548215 0.0539058 0.0544572 0.0588997 0.0580665 0.0673199 0.0682447 0.0641882 0.069365 0.074225 0.0727258 0.0728711 0.0748973 0.0738217 0.0733743 0.075518 0.0811263 0.0818279 0.0799533 0.0794787 0.0794285 0.0766483 0.0765415 0.0795733 0.0763366 0.0772421 0.0837171 0.0840757 0.085969 0.0897006 0.0918854 0.093049 0.0931213 0.0929872 0.0893314 0.0839572 0.0813348 0.0812398 0.0829209 0.0827479 0.0820878 0.0811961 0.0806618 0.0843242 0.0869602 0.0896797 0.0910825 0.0905203 0.0906398 0.08995 0.0920845 0.0943334 0.094828 0.0957306 0.0946722 0.0931297 0.0946727 0.0987644 0.102851 0.107524 0.109966 0.113673 0.116686 0.115614 0.116318 0.117431 0.116505 0.116744 0.118587 0.120477 0.123331 0.126179 0.129241 0.132459 0.134779 0.138252 0.138818 0.141594 0.14493 0.14908 0.154008 0.15938 0.163405 0.171978 0.176186 0.191493
260.525 0.00025 0.213519 0.186941 0.137254 0.0898223 0.0798775 0.076361 0.0711014 0.072572 0.0691454 0.0701684 0.0654622 0.0529472 0.0591547 0.0617378 0.0634779 0.0623448 0.0635439 0.067973 0.0673289 0.0758918 0.0764451 0.0728272 0.0777236 0.0827677 0.0816083 0.0815753 0.0835694 0.082532 0.0813694 0.0832179 0.088999 0.0898261 0.0880054 0.0879431 0.0879628 0.0848984 0.0847654 0.0876297 0.084568 0.0854213 0.0919208 0.0923705 0.094056 0.0978621 0.0999258 0.101077 0.101413 0.101338 0.0975157 0.0920416 0.0893043 0.0893472 0.0913577 0.0913424 0.0908067 0.0900499 0.0895912 0.0931307 0.0954936 0.0982523 0.0998943 0.0993243 0.0994909 0.0988455 0.100985 0.103334 0.103781 0.104812 0.10381 0.102145 0.103605 0.107575 0.111677 0.116256 0.118779 0.122499 0.125534 0.124578 0.125191 0.126356 0.125427 0.125672 0.127697 0.129671 0.132401 0.135222 0.138367 0.141461 0.143725 0.147405 0.147961 0.150551 0.153979 0.15815 0.162957 0.168368 0.172464 0.181007 0.185242 0.200544
260.5275 0.00025 0.165499 0.138793 0.0893361 0.0421455 0.0310585 0.0275995 0.0233943 0.0248787 0.0214352 0.0229557 0.0181044 0.00624616 0.0120142 0.014726 0.0168461 0.0159171 0.0175603 0.0224168 0.0222858 0.0301788 0.0305029 0.0272607 0.0316786 0.0369525 0.0361814 0.0360056 0.0379805 0.0371813 0.0359091 0.0373163 0.0433433 0.0441529 0.0424753 0.04297 0.0429907 0.0396613 0.0394157 0.0420063 0.0390902 0.0401051 0.0462616 0.046593 0.0484116 0.0522264 0.0542138 0.0553821 0.0556551 0.0557852 0.0521638 0.0466533 0.0436547 0.0435087 0.0457374 0.0456233 0.0450469 0.0443214 0.0438401 0.0473743 0.0495642 0.0524388 0.0543013 0.0536604 0.0536822 0.0532243 0.0552137 0.0575508 0.0579697 0.0590781 0.0581938 0.056494 0.057807 0.0617417 0.065858 0.0703886 0.0729808 0.0767786 0.0799266 0.0790486 0.0794823 0.0806113 0.079647 0.0799179 0.0821185 0.0841217 0.0867194 0.0894515 0.0926859 0.0957369 0.0979261 0.101762 0.102363 0.10482 0.108267 0.112528 0.117189 0.12271 0.126864 0.135371 0.139701 0.154958
260.53 0.00025 0.019747 -0.00733349 -0.0566091 -0.103658 -0.115575 -0.119205 -0.122295 -0.121073 -0.125018 -0.122886 -0.128737 -0.140152 -0.134773 -0.132297 -0.130188 -0.130963 -0.129022 -0.124139 -0.124398 -0.117158 -0.117642 -0.120448 -0.116309 -0.111086 -0.111468 -0.111542 -0.109586 -0.1102 -0.111654 -0.110647 -0.104699 -0.103828 -0.10557 -0.104784 -0.104508 -0.107935 -0.108098 -0.105695 -0.108434 -0.107315 -0.101327 -0.100927 -0.0993316 -0.0955257 -0.0936343 -0.0923486 -0.0917429 -0.0916035 -0.0953314 -0.100757 -0.103952 -0.103988 -0.101445 -0.101518 -0.102015 -0.102526 -0.102979 -0.0995276 -0.0975427 -0.0947548 -0.0926254 -0.0933674 -0.0934374 -0.0938307 -0.0918415 -0.0895824 -0.0891983 -0.087995 -0.0888369 -0.0907415 -0.0896548 -0.085852 -0.0817702 -0.0773131 -0.0746131 -0.0707518 -0.0675711 -0.0683575 -0.0680042 -0.0668453 -0.0677769 -0.0674858 -0.0651074 -0.0630164 -0.060596 -0.057884 -0.0545192 -0.0514692 -0.0493699 -0.0453253 -0.0447058 -0.0423949 -0.0388798 -0.0345362 -0.0299573 -0.0244216 -0.0202415 -0.0117637 -0.0073807 0.00785037
260.5325 0.00025 -0.123269 -0.150065 -0.198914 -0.245289 -0.258199 -0.26186 -0.263897 -0.263584 -0.267279 -0.264342 -0.270755 -0.281519 -0.276315 -0.274514 -0.272771 -0.273267 -0.270902 -0.266006 -0.265995 -0.259363 -0.260115 -0.262308 -0.258267 -0.252913 -0.252871 -0.253137 -0.251508 -0.251866 -0.253315 -0.252819 -0.246818 -0.245919 -0.247691 -0.246405 -0.24633 -0.250067 -0.250017 -0.247884 -0.250481 -0.248986 -0.243196 -0.24304 -0.241534 -0.237795 -0.236005 -0.234784 -0.234098 -0.233809 -0.237448 -0.242909 -0.246204 -0.246442 -0.243843 -0.243972 -0.244354 -0.244815 -0.24529 -0.241893 -0.240159 -0.237427 -0.235024 -0.235812 -0.235871 -0.236226 -0.234482 -0.232238 -0.231928 -0.230635 -0.231254 -0.233201 -0.232229 -0.228555 -0.224505 -0.220167 -0.217399 -0.213471 -0.21018 -0.210834 -0.210594 -0.209404 -0.210287 -0.209972 -0.207406 -0.205243 -0.20298 -0.200412 -0.196916 -0.193959 -0.191916 -0.187687 -0.187061 -0.184873 -0.181266 -0.17689 -0.172447 -0.166832 -0.162615 -0.154211 -0.149771 -0.134528
260.535 0.00025 -0.175137 -0.2022 -0.250995 -0.297306 -0.311234 -0.315463 -0.31654 -0.317071 -0.321397 -0.318296 -0.32534 -0.335865 -0.330927 -0.329391 -0.327599 -0.327652 -0.325479 -0.320785 -0.320333 -0.31438 -0.315586 -0.317334 -0.313868 -0.30865 -0.308079 -0.308314 -0.306819 -0.307117 -0.308549 -0.308536 -0.302353 -0.301369 -0.303217 -0.301627 -0.301364 -0.305283 -0.305161 -0.30347 -0.306052 -0.304315 -0.29882 -0.298613 -0.296981 -0.293368 -0.291664 -0.290408 -0.289645 -0.289356 -0.292914 -0.29833 -0.301863 -0.302126 -0.299272 -0.299209 -0.299641 -0.300026 -0.300494 -0.29721 -0.295675 -0.292889 -0.290177 -0.291078 -0.291246 -0.291396 -0.289718 -0.287486 -0.287172 -0.285806 -0.286337 -0.288272 -0.287528 -0.28392 -0.279854 -0.275667 -0.272809 -0.268826 -0.265449 -0.265968 -0.26583 -0.264718 -0.265581 -0.265333 -0.262634 -0.260358 -0.258224 -0.255769 -0.252197 -0.249279 -0.247292 -0.242966 -0.242345 -0.240315 -0.236686 -0.232214 -0.227899 -0.222216 -0.217924 -0.209596 -0.205139 -0.189937
260.5375 0.00025 -0.132257 -0.159092 -0.20772 -0.252949 -0.267217 -0.271827 -0.271405 -0.272227 -0.276246 -0.272436 -0.280052 -0.289972 -0.285149 -0.283497 -0.281257 -0.28087 -0.278532 -0.27443 -0.273687 -0.268182 -0.269606 -0.271194 -0.26807 -0.262713 -0.261398 -0.261251 -0.259911 -0.260194 -0.261682 -0.261886 -0.255975 -0.254878 -0.256741 -0.254752 -0.254436 -0.258635 -0.258233 -0.256622 -0.259275 -0.257216 -0.252045 -0.252068 -0.250589 -0.246981 -0.245386 -0.24414 -0.243166 -0.24273 -0.246406 -0.251718 -0.255433 -0.255861 -0.252962 -0.252808 -0.253051 -0.253276 -0.253781 -0.250553 -0.249175 -0.24643 -0.24363 -0.244378 -0.244498 -0.244696 -0.243117 -0.240928 -0.240591 -0.239259 -0.239708 -0.241704 -0.24116 -0.237719 -0.233729 -0.229641 -0.226701 -0.222638 -0.219134 -0.219521 -0.21954 -0.218444 -0.219281 -0.219006 -0.216185 -0.213859 -0.211851 -0.209484 -0.205815 -0.202951 -0.201057 -0.196655 -0.195942 -0.194008 -0.19035 -0.185841 -0.181608 -0.175917 -0.171627 -0.163319 -0.1587 -0.143525
260.54 0.00025 -0.0963748 -0.123302 -0.17153 -0.216463 -0.231321 -0.235978 -0.234735 -0.236178 -0.240216 -0.235954 -0.244419 -0.253762 -0.249095 -0.247552 -0.245336 -0.244762 -0.24241 -0.238449 -0.237097 -0.232373 -0.234079 -0.235192 -0.232121 -0.226741 -0.224989 -0.224694 -0.223693 -0.224008 -0.225434 -0.226222 -0.220151 -0.219024 -0.221122 -0.21857 -0.218154 -0.222556 -0.221978 -0.220832 -0.223371 -0.221225 -0.216454 -0.216393 -0.214928 -0.211398 -0.210037 -0.208922 -0.207881 -0.207461 -0.211008 -0.216218 -0.219922 -0.220449 -0.217386 -0.217108 -0.217218 -0.217425 -0.217894 -0.214737 -0.21355 -0.210896 -0.207823 -0.208545 -0.208786 -0.208816 -0.207283 -0.205146 -0.204753 -0.203336 -0.203638 -0.205608 -0.205249 -0.201947 -0.198023 -0.194035 -0.191026 -0.186929 -0.183294 -0.183479 -0.183607 -0.182603 -0.183363 -0.183102 -0.180166 -0.177707 -0.17574 -0.173421 -0.169723 -0.166878 -0.165052 -0.160497 -0.159709 -0.157918 -0.154175 -0.149583 -0.145453 -0.139686 -0.135347 -0.127039 -0.122432 -0.107268
260.5425 0.00025 -0.113235 -0.140094 -0.188155 -0.232771 -0.247725 -0.252812 -0.251049 -0.252699 -0.256849 -0.251892 -0.26103 -0.269983 -0.265376 -0.264087 -0.261477 -0.260214 -0.257335 -0.253798 -0.252106 -0.247989 -0.250142 -0.251145 -0.248434 -0.243285 -0.241224 -0.240721 -0.240162 -0.240539 -0.242101 -0.243472 -0.237446 -0.236238 -0.238822 -0.236023 -0.235489 -0.239987 -0.239113 -0.238111 -0.240666 -0.238081 -0.233371 -0.233509 -0.232025 -0.228607 -0.227344 -0.225999 -0.224808 -0.224247 -0.227847 -0.232924 -0.236867 -0.237597 -0.234429 -0.234015 -0.234013 -0.234146 -0.234672 -0.231671 -0.230776 -0.228256 -0.225006 -0.225703 -0.2259 -0.22592 -0.224573 -0.222521 -0.222086 -0.220645 -0.22083 -0.222651 -0.222541 -0.219392 -0.215523 -0.211776 -0.208742 -0.204496 -0.200738 -0.200699 -0.200938 -0.200001 -0.200656 -0.200457 -0.197523 -0.194914 -0.193075 -0.190918 -0.187144 -0.184322 -0.182563 -0.178026 -0.177169 -0.175425 -0.171691 -0.167061 -0.163088 -0.157262 -0.152912 -0.144612 -0.139948 -0.12476
260.545 0.00025 -0.202202 -0.228841 -0.276505 -0.320851 -0.336289 -0.342333 -0.339861 -0.3423 -0.346796 -0.341322 -0.351035 -0.360053 -0.355914 -0.354717 -0.351879 -0.350012 -0.34704 -0.344222 -0.342057 -0.338073 -0.340808 -0.341377 -0.338916 -0.333788 -0.331182 -0.330203 -0.329942 -0.330459 -0.331552 -0.33328 -0.326957 -0.325595 -0.328301 -0.32498 -0.324269 -0.328901 -0.327919 -0.327152 -0.329955 -0.327239 -0.322789 -0.323017 -0.321662 -0.318298 -0.3173 -0.316214 -0.314871 -0.314165 -0.317644 -0.322531 -0.326474 -0.327312 -0.324203 -0.323732 -0.32352 -0.323562 -0.324069 -0.321031 -0.320277 -0.317795 -0.314489 -0.315126 -0.315396 -0.315291 -0.314047 -0.312118 -0.3116 -0.310158 -0.310299 -0.31207 -0.312167 -0.309158 -0.305405 -0.301836 -0.298725 -0.29443 -0.290536 -0.290292 -0.290632 -0.289743 -0.29035 -0.290194 -0.287155 -0.284388 -0.282615 -0.280615 -0.276819 -0.273985 -0.272307 -0.267688 -0.266769 -0.265108 -0.261341 -0.256633 -0.25272 -0.246794 -0.242443 -0.234235 -0.229477 -0.214326
260.5475 0.00025 -0.236864 -0.263476 -0.31162 -0.356134 -0.371694 -0.378494 -0.375709 -0.378744 -0.383249 -0.37753 -0.387638 -0.396748 -0.393255 -0.392356 -0.389662 -0.387794 -0.384985 -0.382644 -0.379921 -0.375969 -0.378682 -0.379427 -0.377419 -0.372597 -0.36949 -0.368294 -0.368413 -0.368789 -0.370005 -0.372108 -0.365973 -0.364663 -0.367779 -0.364194 -0.363337 -0.368157 -0.366702 -0.366018 -0.368719 -0.36595 -0.361669 -0.36186 -0.360556 -0.357278 -0.35657 -0.355537 -0.354085 -0.353311 -0.356681 -0.36158 -0.365678 -0.366878 -0.363756 -0.363179 -0.36278 -0.36281 -0.363311 -0.360483 -0.359909 -0.357629 -0.354152 -0.354744 -0.354957 -0.354828 -0.353789 -0.351928 -0.351291 -0.349765 -0.349812 -0.351449 -0.351724 -0.34892 -0.345176 -0.341783 -0.338615 -0.334225 -0.330115 -0.32953 -0.329907 -0.329143 -0.329614 -0.32939 -0.326346 -0.323443 -0.321664 -0.319734 -0.315976 -0.313079 -0.311423 -0.30679 -0.30578 -0.304167 -0.300398 -0.295654 -0.291812 -0.285832 -0.281488 -0.273275 -0.26843 -0.253316
260.55 0.00025 -0.267887 -0.29451 -0.342101 -0.385976 -0.401213 -0.408048 -0.404994 -0.408121 -0.412806 -0.406745 -0.417374 -0.426218 -0.423617 -0.422489 -0.419791 -0.417083 -0.41412 -0.411955 -0.409261 -0.405706 -0.408609 -0.409134 -0.407076 -0.402438 -0.398789 -0.397115 -0.39736 -0.39766 -0.398701 -0.401179 -0.3949 -0.393435 -0.396914 -0.393044 -0.391976 -0.396869 -0.395214 -0.394608 -0.397586 -0.39487 -0.390819 -0.391143 -0.389909 -0.386569 -0.386034 -0.385176 -0.383503 -0.382687 -0.3861 -0.390584 -0.394688 -0.396041 -0.392853 -0.392098 -0.391603 -0.39156 -0.39211 -0.389359 -0.388846 -0.386714 -0.383165 -0.383508 -0.383725 -0.383564 -0.382624 -0.380775 -0.380006 -0.378482 -0.378434 -0.379887 -0.380276 -0.377683 -0.374086 -0.370928 -0.367793 -0.363271 -0.359021 -0.358183 -0.358722 -0.358038 -0.358422 -0.358265 -0.355209 -0.352139 -0.350305 -0.348601 -0.344883 -0.342018 -0.340416 -0.335837 -0.334699 -0.333137 -0.329347 -0.324544 -0.32076 -0.314763 -0.310383 -0.3021 -0.297238 -0.282167
260.5525 0.00025 -0.299184 -0.325243 -0.372385 -0.416486 -0.431608 -0.438713 -0.435056 -0.43849 -0.443152 -0.436714 -0.447266 -0.455916 -0.453256 -0.452133 -0.449421 -0.446166 -0.44319 -0.44127 -0.438099 -0.434669 -0.438017 -0.438423 -0.436627 -0.432191 -0.428111 -0.426001 -0.426906 -0.427251 -0.428212 -0.431219 -0.424652 -0.422909 -0.426825 -0.42285 -0.421621 -0.42664 -0.424696 -0.424072 -0.426841 -0.424186 -0.420223 -0.420349 -0.419132 -0.415786 -0.41551 -0.4149 -0.413123 -0.412176 -0.415359 -0.419743 -0.423953 -0.4255 -0.422388 -0.421539 -0.420741 -0.420615 -0.421051 -0.418364 -0.417948 -0.415816 -0.412163 -0.412471 -0.412669 -0.412522 -0.4117 -0.409963 -0.409149 -0.407607 -0.407528 -0.408831 -0.40941 -0.406982 -0.403537 -0.400601 -0.397446 -0.392881 -0.38848 -0.387354 -0.387961 -0.387413 -0.38767 -0.38754 -0.384535 -0.381358 -0.379507 -0.377929 -0.374306 -0.37134 -0.369802 -0.365295 -0.364076 -0.36251 -0.358767 -0.353898 -0.350181 -0.344091 -0.339729 -0.331527 -0.326613 -0.311546
260.555 0.00025 -0.328217 -0.354501 -0.401882 -0.445655 -0.460151 -0.467622 -0.463913 -0.46747 -0.472317 -0.466322 -0.476747 -0.485232 -0.482965 -0.481757 -0.478737 -0.475263 -0.472175 -0.470558 -0.467321 -0.464161 -0.467687 -0.467539 -0.465705 -0.461451 -0.456929 -0.454396 -0.455495 -0.455801 -0.456623 -0.460074 -0.453482 -0.451752 -0.455951 -0.451912 -0.450316 -0.45546 -0.453413 -0.452928 -0.455806 -0.453267 -0.449474 -0.449633 -0.448542 -0.444965 -0.444755 -0.444398 -0.442465 -0.441481 -0.444556 -0.448472 -0.45277 -0.454521 -0.451328 -0.450323 -0.449532 -0.449451 -0.449863 -0.447185 -0.446853 -0.444899 -0.441195 -0.441434 -0.441486 -0.44126 -0.440652 -0.439037 -0.438078 -0.436455 -0.436415 -0.437484 -0.438138 -0.435906 -0.432486 -0.42976 -0.42659 -0.421952 -0.417457 -0.415945 -0.416517 -0.416081 -0.416218 -0.416072 -0.413117 -0.409783 -0.407831 -0.406326 -0.402829 -0.39984 -0.398296 -0.393844 -0.392499 -0.390935 -0.387178 -0.382302 -0.378634 -0.372504 -0.368197 -0.360019 -0.355047 -0.339993
260.5575 0.00025 -0.318583 -0.344496 -0.391155 -0.43561 -0.449923 -0.456908 -0.453429 -0.456661 -0.461302 -0.455832 -0.465647 -0.473527 -0.471829 -0.470779 -0.467846 -0.464234 -0.461346 -0.460088 -0.456446 -0.453794 -0.457441 -0.457248 -0.455959 -0.452181 -0.447265 -0.444174 -0.445461 -0.445683 -0.446338 -0.450026 -0.443344 -0.441363 -0.446026 -0.442003 -0.44031 -0.445333 -0.443169 -0.442595 -0.445332 -0.443058 -0.439328 -0.439308 -0.438273 -0.434844 -0.434833 -0.434636 -0.432692 -0.431536 -0.434394 -0.438116 -0.442346 -0.444295 -0.441141 -0.439908 -0.438767 -0.438618 -0.439043 -0.436425 -0.436174 -0.434219 -0.430587 -0.430646 -0.430688 -0.430529 -0.430052 -0.428539 -0.427562 -0.425862 -0.425825 -0.426652 -0.427342 -0.425382 -0.422223 -0.419703 -0.416506 -0.411785 -0.407092 -0.405304 -0.405912 -0.405641 -0.405675 -0.405569 -0.402712 -0.399229 -0.397191 -0.39582 -0.392376 -0.389354 -0.387778 -0.383373 -0.38195 -0.380333 -0.376577 -0.371645 -0.368022 -0.361831 -0.357542 -0.349325 -0.344362 -0.329278
260.56 0.00025 -0.313014 -0.338904 -0.38554 -0.430032 -0.444038 -0.451131 -0.447843 -0.45091 -0.455414 -0.450546 -0.459756 -0.466899 -0.466247 -0.465263 -0.462189 -0.458815 -0.455787 -0.454343 -0.450976 -0.448408 -0.452354 -0.452032 -0.450465 -0.446866 -0.441552 -0.438159 -0.439529 -0.439879 -0.440592 -0.444604 -0.437873 -0.435827 -0.440689 -0.436884 -0.434984 -0.440001 -0.437674 -0.436929 -0.439553 -0.437496 -0.434128 -0.434121 -0.433208 -0.429663 -0.429834 -0.429943 -0.428057 -0.427097 -0.429661 -0.433021 -0.437351 -0.439534 -0.43649 -0.435152 -0.433924 -0.433853 -0.434187 -0.431543 -0.431328 -0.429572 -0.425883 -0.42575 -0.425653 -0.425522 -0.425168 -0.423756 -0.422668 -0.420938 -0.420978 -0.421719 -0.42237 -0.420521 -0.417552 -0.41527 -0.412096 -0.407398 -0.402662 -0.400486 -0.401065 -0.400918 -0.400881 -0.400791 -0.398037 -0.394484 -0.392355 -0.391109 -0.387808 -0.384747 -0.383206 -0.378959 -0.377448 -0.375805 -0.371978 -0.367037 -0.363481 -0.357272 -0.352946 -0.34469 -0.339625 -0.324526
260.5625 0.00025 -0.317696 -0.343419 -0.389351 -0.434921 -0.448082 -0.455365 -0.452072 -0.454721 -0.45897 -0.45417 -0.463417 -0.470087 -0.470062 -0.469119 -0.465433 -0.461626 -0.458449 -0.456783 -0.453614 -0.451373 -0.455533 -0.45504 -0.453855 -0.450386 -0.444537 -0.440633 -0.442134 -0.442609 -0.443383 -0.447418 -0.440503 -0.438371 -0.44354 -0.439731 -0.437571 -0.442562 -0.440345 -0.439596 -0.442157 -0.440388 -0.437306 -0.437188 -0.43648 -0.432949 -0.43306 -0.43319 -0.431433 -0.430475 -0.43294 -0.435948 -0.440266 -0.442561 -0.439564 -0.438096 -0.436773 -0.436621 -0.436942 -0.43441 -0.434076 -0.432318 -0.428698 -0.428429 -0.428259 -0.428165 -0.427908 -0.426592 -0.425433 -0.423633 -0.423714 -0.424226 -0.424817 -0.423137 -0.420358 -0.418284 -0.415164 -0.410459 -0.4056 -0.403091 -0.403621 -0.403624 -0.403438 -0.403329 -0.400647 -0.396944 -0.394669 -0.393535 -0.390382 -0.387269 -0.385772 -0.381647 -0.380029 -0.37829 -0.37454 -0.369594 -0.366091 -0.359903 -0.355631 -0.347346 -0.342246 -0.327183
260.565 0.00025 -0.3244 -0.349974 -0.396025 -0.440783 -0.45395 -0.461181 -0.459931 -0.462258 -0.466841 -0.462348 -0.471498 -0.477686 -0.478117 -0.477805 -0.473826 -0.47011 -0.467069 -0.465018 -0.461768 -0.459883 -0.463678 -0.463002 -0.462332 -0.458869 -0.452626 -0.448297 -0.449627 -0.449946 -0.45058 -0.454934 -0.448085 -0.445636 -0.450726 -0.447228 -0.444874 -0.44949 -0.447209 -0.446028 -0.44826 -0.446683 -0.443693 -0.443468 -0.442846 -0.439297 -0.4395 -0.439963 -0.438379 -0.437678 -0.439891 -0.442618 -0.446937 -0.449317 -0.446372 -0.44471 -0.443199 -0.443065 -0.443365 -0.440895 -0.440678 -0.439068 -0.435525 -0.435095 -0.434722 -0.434638 -0.434564 -0.433308 -0.432049 -0.430182 -0.430297 -0.430661 -0.431253 -0.429842 -0.42739 -0.425542 -0.422461 -0.41775 -0.412894 -0.410013 -0.410386 -0.410513 -0.410264 -0.410166 -0.407671 -0.40389 -0.401489 -0.400416 -0.39742 -0.394277 -0.392776 -0.388775 -0.387043 -0.385249 -0.381516 -0.376566 -0.373029 -0.366807 -0.362603 -0.354301 -0.349199 -0.334137
260.5675 0.00025 -0.370536 -0.39622 -0.441503 -0.487716 -0.500673 -0.507325 -0.506038 -0.507844 -0.512597 -0.509319 -0.518366 -0.523742 -0.524496 -0.524598 -0.520172 -0.516835 -0.51405 -0.512165 -0.508857 -0.507292 -0.510947 -0.510292 -0.509653 -0.506347 -0.499922 -0.495335 -0.496686 -0.497242 -0.498159 -0.502409 -0.495651 -0.493436 -0.498624 -0.495047 -0.49254 -0.497162 -0.494743 -0.493664 -0.495735 -0.494632 -0.492035 -0.491747 -0.491158 -0.48749 -0.487657 -0.487905 -0.486554 -0.486058 -0.487899 -0.490257 -0.494579 -0.497084 -0.494389 -0.492578 -0.491015 -0.490984 -0.491227 -0.488787 -0.488455 -0.486828 -0.483329 -0.482649 -0.482171 -0.482085 -0.482144 -0.480879 -0.479619 -0.477629 -0.477819 -0.478037 -0.478444 -0.477057 -0.474828 -0.473213 -0.470283 -0.465754 -0.460915 -0.457706 -0.457945 -0.458199 -0.457864 -0.457797 -0.455369 -0.451498 -0.448933 -0.44788 -0.445018 -0.441819 -0.440271 -0.436359 -0.434552 -0.432626 -0.428846 -0.423895 -0.420372 -0.414128 -0.409921 -0.401638 -0.396512 -0.381427
260.57 0.00025 -0.462375 -0.488139 -0.533331 -0.579808 -0.592831 -0.599761 -0.598367 -0.599363 -0.604384 -0.602159 -0.610957 -0.615526 -0.616977 -0.617507 -0.6123 -0.60906 -0.606649 -0.604371 -0.601393 -0.600157 -0.603879 -0.603411 -0.602968 -0.599913 -0.593103 -0.588238 -0.589632 -0.590071 -0.59113 -0.595437 -0.588746 -0.586542 -0.591652 -0.588635 -0.58615 -0.590536 -0.588176 -0.586846 -0.588478 -0.587492 -0.585202 -0.584985 -0.584464 -0.581124 -0.581359 -0.581692 -0.580582 -0.580455 -0.582108 -0.584132 -0.588391 -0.591014 -0.588385 -0.586428 -0.584748 -0.584713 -0.584873 -0.58262 -0.582257 -0.580711 -0.577296 -0.576493 -0.575936 -0.575837 -0.576055 -0.574987 -0.573602 -0.571616 -0.571952 -0.572077 -0.572369 -0.571081 -0.569162 -0.56774 -0.564831 -0.560331 -0.555501 -0.551936 -0.552053 -0.552411 -0.551979 -0.551922 -0.549688 -0.545651 -0.542911 -0.541895 -0.539181 -0.535994 -0.534433 -0.530702 -0.528854 -0.526812 -0.522997 -0.517974 -0.514504 -0.508252 -0.504073 -0.495787 -0.490564 -0.475494
260.5725 0.00025 -0.533941 -0.559587 -0.604457 -0.651191 -0.664678 -0.671196 -0.670356 -0.670956 -0.67619 -0.67442 -0.682761 -0.686765 -0.688671 -0.689577 -0.683929 -0.680428 -0.678513 -0.675938 -0.673135 -0.672338 -0.675814 -0.675243 -0.674624 -0.671642 -0.664666 -0.659499 -0.660699 -0.661541 -0.662641 -0.666778 -0.660307 -0.658071 -0.66293 -0.659934 -0.657424 -0.661578 -0.659204 -0.657898 -0.65959 -0.6587 -0.656709 -0.656388 -0.655833 -0.652318 -0.652557 -0.652664 -0.651664 -0.652024 -0.653347 -0.655064 -0.659259 -0.661834 -0.659315 -0.65728 -0.655543 -0.655514 -0.655582 -0.653307 -0.652906 -0.651394 -0.648049 -0.647157 -0.646463 -0.646471 -0.646759 -0.645689 -0.644245 -0.642177 -0.642496 -0.642464 -0.642599 -0.641476 -0.639929 -0.638849 -0.63606 -0.631589 -0.626861 -0.623044 -0.62291 -0.623346 -0.622884 -0.622848 -0.620753 -0.616653 -0.613721 -0.612762 -0.610199 -0.607 -0.605478 -0.601874 -0.599968 -0.597828 -0.594041 -0.589036 -0.585597 -0.579398 -0.57529 -0.567017 -0.561817 -0.546718
260.575 0.00025 -0.553125 -0.578706 -0.623014 -0.669652 -0.683017 -0.688874 -0.688568 -0.688941 -0.694028 -0.692845 -0.700893 -0.704479 -0.706611 -0.708284 -0.701846 -0.698227 -0.696394 -0.693414 -0.690806 -0.690236 -0.693384 -0.692873 -0.692612 -0.689532 -0.682735 -0.677748 -0.678849 -0.679659 -0.680929 -0.684987 -0.678786 -0.676423 -0.681021 -0.678597 -0.676069 -0.680204 -0.67784 -0.676394 -0.677463 -0.676676 -0.675022 -0.674811 -0.674309 -0.67125 -0.671491 -0.671439 -0.670798 -0.671529 -0.672577 -0.673933 -0.678025 -0.680463 -0.678163 -0.675876 -0.674004 -0.674082 -0.674049 -0.6719 -0.671501 -0.669978 -0.666669 -0.665643 -0.664759 -0.664736 -0.665137 -0.664223 -0.662697 -0.660572 -0.661009 -0.66091 -0.660786 -0.659699 -0.65845 -0.657588 -0.654856 -0.650549 -0.64593 -0.641874 -0.641473 -0.641993 -0.641451 -0.64146 -0.639478 -0.635291 -0.63223 -0.631251 -0.628791 -0.625613 -0.624073 -0.620652 -0.618693 -0.616426 -0.612637 -0.607622 -0.604171 -0.597979 -0.593912 -0.585583 -0.580342 -0.565249