260.5025 0.00025 1.65854 0.279505 0.0942212 0.0544032 0.0416154 0.0343244 0.0294797 0.0261135 0.0229158 0.0204275 0.0190164 0.0181852 0.0168707 0.0156524 0.0147444 0.0140253 0.013239 0.0128103 0.0124127 0.0117106 0.0110573 0.0102938 0.0096981 0.00925568 0.00870274 0.00819357 0.0076209 0.00717509 0.00688805 0.00668711 0.00646843 0.00621522 0.00614659 0.00603481 0.0059527 0.00590444 0.00577246 0.00585124 0.00567199 0.00555282 0.00545607 0.00520846 0.00493662 0.00468201 0.0044002 0.00415778 0.00403834 0.00399313 0.00394676 0.00386876 0.00376891 0.00372023 0.00362231 0.00358912 0.0035909 0.00365597 0.00370795 0.00363319 0.00349716 0.00337138 0.00324864 0.00313171 0.00300976 0.00290599 0.002841 0.00283014 0.00276847 0.00274582 0.00274839 0.00272682 0.00271601 0.0026608 0.00263381 0.00262619 0.00259514 0.00251132 0.0024494 0.00242137 0.00237696 0.00231273 0.00219657 0.00216438 0.00215498 0.00209388 0.00199974 0.00192649 0.0018913 0.00186325 0.00185773 0.00182264 0.00181535 0.00178532 0.00176101 0.00173294 0.00172661 0.00171611 0.00170844 0.00175523 0.00187315 0.00193996
260.505 0.00025 1.65825 0.279659 0.0942516 0.0544271 0.0415802 0.0343461 0.0295248 0.0261441 0.0229294 0.0203997 0.0189783 0.0181721 0.016873 0.0156591 0.0147378 0.0140173 0.0132284 0.0127992 0.0123976 0.0117131 0.0110641 0.0102807 0.00968073 0.00924208 0.00869941 0.00819715 0.0076224 0.00717798 0.00688614 0.00667395 0.00645616 0.00621187 0.00614583 0.00603436 0.00594595 0.00589613 0.00576497 0.00584511 0.00566355 0.00554457 0.00546167 0.00522118 0.00494244 0.00468525 0.00440242 0.00415877 0.00404091 0.00399416 0.00394162 0.00386136 0.00376537 0.00371904 0.00361821 0.00358417 0.00359206 0.0036577 0.00370204 0.0036251 0.00349495 0.00336829 0.00324185 0.00312899 0.00300917 0.00290224 0.00283753 0.00282768 0.00276931 0.00274611 0.00274482 0.00272397 0.00271673 0.00266384 0.00263555 0.00262346 0.00259107 0.00251031 0.00244925 0.00242094 0.00237733 0.00231434 0.00219731 0.0021638 0.00215387 0.00209202 0.00199702 0.00192519 0.00189 0.00186085 0.0018546 0.00181907 0.00181314 0.00178339 0.00175831 0.00173121 0.00172614 0.0017143 0.00170635 0.00175337 0.00187175 0.00193827
260.5075 0.00025 1.65797 0.279705 0.094319 0.0544165 0.0415318 0.034355 0.0295568 0.0261645 0.0229409 0.0203731 0.0189398 0.0181468 0.0168833 0.0156663 0.0147314 0.0140022 0.0132207 0.0127896 0.0123864 0.0117132 0.0110619 0.0102687 0.00966272 0.0092312 0.00869295 0.00819745 0.00762466 0.00718156 0.00688405 0.00666077 0.00644292 0.00620804 0.00614501 0.00603578 0.0059374 0.00588925 0.00575798 0.00583566 0.00565521 0.00553472 0.00546568 0.00523267 0.00494961 0.00468789 0.00440452 0.00416028 0.00404463 0.00399572 0.00393648 0.00385316 0.00376174 0.0037166 0.00361426 0.00358037 0.00359291 0.00365975 0.00369648 0.00361762 0.0034918 0.00336542 0.00323455 0.00312652 0.00300831 0.00289893 0.00283431 0.00282516 0.00277021 0.00274705 0.00274096 0.00272055 0.00271669 0.00266663 0.00263785 0.0026216 0.00258721 0.00250838 0.00244986 0.00242073 0.00237745 0.00231579 0.00219813 0.00216359 0.00215276 0.00208968 0.00199413 0.00192373 0.00188907 0.00185851 0.00185165 0.0018162 0.00181096 0.00178152 0.00175543 0.00172953 0.00172551 0.00171227 0.00170482 0.00175193 0.00187029 0.00193733
260.51 0.00025 1.65769 0.279291 0.094456 0.0544373 0.0414873 0.0343779 0.0295945 0.0261949 0.0229492 0.0203487 0.0189002 0.0181181 0.0168886 0.0156758 0.0147233 0.0139892 0.0132171 0.0127819 0.0123745 0.0117129 0.0110608 0.0102602 0.00965198 0.00921669 0.00868629 0.00820033 0.00762826 0.00718661 0.00688144 0.00664586 0.00642828 0.00620438 0.0061439 0.00603512 0.00592993 0.00588077 0.00574984 0.00582887 0.00564753 0.00552391 0.00546768 0.00524417 0.00495612 0.00469079 0.00440679 0.00416268 0.00404979 0.00399849 0.00393135 0.00384578 0.00375753 0.00371372 0.00360964 0.00357766 0.00359428 0.0036624 0.00369039 0.00360901 0.00349003 0.00336259 0.00322823 0.00312351 0.00300786 0.00289595 0.00283181 0.00282238 0.00276996 0.00274812 0.00273795 0.00271752 0.00271559 0.00266864 0.00264082 0.0026204 0.00258376 0.00250697 0.00245037 0.00242046 0.00237727 0.00231747 0.00219963 0.00216316 0.00215122 0.00208741 0.00199111 0.00192231 0.00188775 0.00185632 0.00184878 0.00181286 0.00180853 0.00177971 0.00175289 0.00172789 0.00172477 0.00171061 0.00170322 0.00175043 0.00186935 0.00193558
260.5125 0.00025 1.65743 0.279507 0.0944766 0.0544362 0.0414333 0.0343873 0.029641 0.0262294 0.0229545 0.020324 0.0188605 0.0180892 0.0169021 0.0156866 0.0147247 0.0139755 0.0132094 0.0127751 0.0123599 0.0117142 0.0110555 0.0102478 0.00963906 0.00920161 0.00868008 0.00820159 0.00763424 0.00719188 0.00687957 0.0066295 0.00641192 0.00620098 0.00614423 0.00603605 0.00592169 0.00587258 0.00574358 0.00581934 0.00564018 0.00551474 0.00546775 0.00525413 0.00496283 0.00469347 0.0044091 0.00416558 0.00405481 0.00400044 0.003927 0.00383834 0.00375339 0.00371052 0.0036053 0.00357365 0.00359528 0.00366401 0.00368329 0.00360115 0.00348819 0.00335952 0.00322157 0.00311994 0.00300675 0.0028934 0.00282861 0.00281873 0.00277 0.00274962 0.00273613 0.00271358 0.0027133 0.00267075 0.0026439 0.00262038 0.00258078 0.00250545 0.00245078 0.00242029 0.00237668 0.00231845 0.00220134 0.00216309 0.00214944 0.00208546 0.00198822 0.00192089 0.00188642 0.00185421 0.00184581 0.0018097 0.00180616 0.00177772 0.00175024 0.00172644 0.00172378 0.00170848 0.00170167 0.00174908 0.001869 0.00193368
260.515 0.00025 1.65718 0.279281 0.0944753 0.0544495 0.0413738 0.0343965 0.0296676 0.0262524 0.022956 0.0203048 0.0188219 0.0180627 0.0169194 0.0156971 0.0147128 0.013962 0.0132093 0.0127674 0.0123466 0.0117123 0.0110485 0.0102385 0.00962988 0.00918433 0.00867433 0.00820217 0.00763873 0.00719852 0.00687803 0.00661274 0.00639478 0.00619732 0.00614436 0.0060353 0.00591393 0.00586556 0.00573658 0.0058123 0.00563088 0.00550475 0.00546751 0.00526299 0.00496986 0.00469674 0.00441042 0.00416926 0.00406 0.0040027 0.00392279 0.00383214 0.00374912 0.00370619 0.00360169 0.00357045 0.00359649 0.00366581 0.00367623 0.00359318 0.00348473 0.00335598 0.00321572 0.00311634 0.00300551 0.00289126 0.00282575 0.00281518 0.00277004 0.00275074 0.00273414 0.00271033 0.00271021 0.00267138 0.00264684 0.00262073 0.00257776 0.00250369 0.00245114 0.00242035 0.00237622 0.0023197 0.00220305 0.00216292 0.00214788 0.00208329 0.00198588 0.0019203 0.00188513 0.00185216 0.00184287 0.0018066 0.00180364 0.00177552 0.00174765 0.00172463 0.00172244 0.00170661 0.00170025 0.00174747 0.00186845 0.00193174
260.5175 0.00025 1.65693 0.279115 0.0944444 0.0544561 0.0413252 0.0344054 0.0296965 0.0262735 0.0229651 0.0202901 0.0187918 0.0180279 0.0169297 0.0157163 0.0147063 0.0139476 0.0132105 0.0127615 0.0123321 0.0117089 0.0110428 0.0102275 0.00961812 0.0091687 0.00866697 0.00820153 0.00764128 0.00720464 0.00687775 0.00659618 0.00637763 0.00619407 0.0061445 0.00603555 0.00590822 0.00585801 0.00572993 0.00580564 0.0056244 0.00549625 0.0054643 0.0052682 0.00497733 0.00469963 0.00441317 0.00417305 0.00406574 0.00400548 0.00391897 0.00382594 0.00374612 0.00370192 0.00359813 0.00356698 0.00359791 0.00366703 0.00366951 0.00358493 0.00348228 0.00335322 0.00321005 0.00311305 0.00300349 0.00288963 0.00282321 0.00281159 0.00276918 0.00275167 0.00273296 0.00270733 0.00270767 0.00267124 0.0026497 0.00262203 0.00257595 0.00250222 0.00245187 0.00242071 0.00237524 0.00232077 0.00220493 0.00216286 0.00214588 0.00208112 0.00198364 0.00191929 0.00188374 0.00185022 0.00184003 0.00180334 0.00180112 0.00177339 0.00174588 0.00172289 0.00172117 0.00170482 0.00169929 0.00174645 0.00186716 0.00193063
260.52 0.00025 1.65669 0.278957 0.0944326 0.0544498 0.0412808 0.0344105 0.0297159 0.0262856 0.0229593 0.0202805 0.0187554 0.0179933 0.0169405 0.0157308 0.0146987 0.0139359 0.0132108 0.0127595 0.0123209 0.0117064 0.0110362 0.0102155 0.00961013 0.0091557 0.00865887 0.00819804 0.00764372 0.00721068 0.00687616 0.00657971 0.00636094 0.00618907 0.00614642 0.00603464 0.00590178 0.00585051 0.00572118 0.00579704 0.00561559 0.00548711 0.00546029 0.0052732 0.00498506 0.00470296 0.00441553 0.00417744 0.00407244 0.00400888 0.00391529 0.00382061 0.00374128 0.00369747 0.00359404 0.00356369 0.00360053 0.00366793 0.00366306 0.00357661 0.00347919 0.00334997 0.00320487 0.00310995 0.00300058 0.00288833 0.00282101 0.00280784 0.00276791 0.00275275 0.00273212 0.00270487 0.00270419 0.00267023 0.00265243 0.00262293 0.00257462 0.00250086 0.00245209 0.00242135 0.0023742 0.00232176 0.00220684 0.00216295 0.00214363 0.00207897 0.00198116 0.00191812 0.00188284 0.00184817 0.00183712 0.00180023 0.00179864 0.00177116 0.00174364 0.00172115 0.00171966 0.00170282 0.00169791 0.0017452 0.00186583 0.001929
260.5225 0.00025 1.65645 0.278876 0.0944172 0.0544365 0.0412435 0.0343944 0.0297326 0.0263002 0.0229615 0.020274 0.018733 0.0179614 0.0169476 0.0157453 0.0146932 0.0139255 0.0132149 0.012758 0.0123119 0.0117018 0.0110259 0.0102078 0.00960308 0.00914367 0.00864742 0.00819328 0.00764608 0.00721797 0.00687462 0.00656116 0.00634452 0.00618377 0.0061466 0.00603337 0.00589556 0.00584466 0.00571354 0.00579085 0.00560976 0.00547918 0.00545577 0.00527431 0.00499143 0.0047073 0.00441821 0.00418199 0.00407945 0.00401187 0.00391188 0.00381545 0.0037376 0.00369147 0.00359055 0.00356069 0.00360294 0.00366834 0.00365536 0.00356907 0.00347643 0.00334821 0.0031999 0.00310636 0.00299792 0.00288737 0.00281886 0.00280443 0.00276781 0.00275411 0.00273084 0.00270206 0.00270033 0.00266809 0.00265475 0.00262451 0.00257369 0.00249955 0.00245344 0.00242132 0.00237302 0.00232209 0.00220879 0.00216317 0.0021413 0.00207669 0.00197905 0.00191693 0.00188149 0.00184584 0.00183423 0.00179739 0.00179609 0.00176888 0.00174149 0.00171943 0.00171789 0.00170111 0.00169678 0.00174388 0.00186495 0.00192749
260.525 0.00025 1.65621 0.278578 0.0944056 0.0544116 0.0411992 0.0344099 0.0297405 0.0263097 0.022963 0.0202775 0.018719 0.0179314 0.0169479 0.015763 0.0146876 0.0139152 0.0132193 0.0127617 0.0122975 0.0116949 0.0110167 0.0101987 0.0095975 0.0091343 0.00863755 0.00818665 0.00764779 0.00722441 0.00687311 0.00654268 0.0063281 0.00617821 0.00614717 0.00603302 0.00589047 0.00583788 0.00570595 0.00578246 0.00560303 0.0054729 0.00544995 0.00527463 0.00499649 0.00471228 0.00442061 0.00418685 0.00408668 0.00401568 0.00390848 0.00381041 0.00373339 0.00368604 0.0035872 0.00355857 0.00360477 0.0036685 0.00364713 0.0035608 0.00347243 0.00334487 0.00319474 0.00310231 0.00299449 0.00288667 0.00281676 0.00280053 0.00276579 0.00275444 0.00273039 0.00269936 0.00269729 0.00266536 0.00265617 0.00262661 0.00257349 0.00249868 0.0024546 0.00242147 0.0023722 0.00232239 0.00221072 0.00216362 0.00213876 0.00207449 0.00197711 0.00191598 0.0018801 0.00184369 0.00183125 0.00179518 0.00179363 0.00176685 0.0017396 0.00171773 0.00171581 0.001699 0.00169547 0.00174253 0.00186381 0.0019261
260.5275 0.00025 1.65598 0.278284 0.0943275 0.054405 0.0411735 0.0344069 0.0297511 0.0263205 0.0229562 0.0202746 0.0187044 0.017898 0.0169473 0.0157825 0.014683 0.0139049 0.0132268 0.0127645 0.0122838 0.0116876 0.0110043 0.0101899 0.00959429 0.00912256 0.00862938 0.00818062 0.00764842 0.00723308 0.00687307 0.00652394 0.00631152 0.00617273 0.00614646 0.00603167 0.00588482 0.0058321 0.00570168 0.00577382 0.00559597 0.00546852 0.00544619 0.00527233 0.00499948 0.00471698 0.00442471 0.00419157 0.0040939 0.0040204 0.00390542 0.00380687 0.00372732 0.00367959 0.00358406 0.00355656 0.00360644 0.00366736 0.00363886 0.00355311 0.00346823 0.00334275 0.0031907 0.00309937 0.0029908 0.00288593 0.00281516 0.00279691 0.00276347 0.00275494 0.00272922 0.00269672 0.00269417 0.0026627 0.00265707 0.00262826 0.00257389 0.00249799 0.00245577 0.0024213 0.00237117 0.00232271 0.00221304 0.00216414 0.00213635 0.00207243 0.00197525 0.00191475 0.0018788 0.00184151 0.00182814 0.00179262 0.001791 0.00176431 0.00173793 0.00171619 0.00171348 0.00169683 0.00169468 0.00174145 0.00186273 0.00192455
260.53 0.00025 1.65575 0.278159 0.0942888 0.054369 0.0411505 0.0343986 0.0297501 0.0263152 0.0229425 0.0202734 0.018704 0.017871 0.0169465 0.0158007 0.0146765 0.0139012 0.0132365 0.0127671 0.0122734 0.0116789 0.0109899 0.0101811 0.00958841 0.00911448 0.00862313 0.00816962 0.0076477 0.00724014 0.00687046 0.00650607 0.00629797 0.00616598 0.00614461 0.00602854 0.00588072 0.00582602 0.00569593 0.00576296 0.00559028 0.00546668 0.00544308 0.00527021 0.00500016 0.00472293 0.00442861 0.00419684 0.0041032 0.00402438 0.00390166 0.00380252 0.00372235 0.00367349 0.00358114 0.00355597 0.00360741 0.00366576 0.00363165 0.00354546 0.00346427 0.00334027 0.00318702 0.00309597 0.00298734 0.0028851 0.00281347 0.00279304 0.00276102 0.00275465 0.002728 0.00269491 0.00269037 0.00265934 0.0026571 0.00263002 0.0025741 0.00249821 0.00245673 0.00242103 0.00237001 0.0023226 0.00221561 0.00216483 0.00213381 0.00207052 0.00197364 0.00191351 0.00187732 0.00183942 0.00182509 0.00179021 0.00178829 0.00176203 0.00173623 0.00171435 0.00171093 0.00169497 0.00169369 0.0017409 0.00186212 0.00192316
260.5325 0.00025 1.65552 0.278181 0.0942532 0.0543457 0.0411136 0.0343913 0.0297489 0.0263018 0.0229271 0.0202708 0.018698 0.0178465 0.016937 0.0158183 0.0146723 0.0138921 0.0132484 0.0127732 0.0122583 0.0116686 0.0109789 0.0101743 0.00958273 0.00910671 0.00861319 0.00815679 0.00764697 0.00724544 0.00686918 0.00648843 0.00628348 0.0061586 0.00614247 0.00602597 0.00587683 0.00582097 0.00569029 0.00575123 0.00558596 0.00546542 0.00544133 0.00526578 0.00499961 0.00472835 0.00443257 0.00420233 0.0041106 0.004028 0.00389938 0.0037983 0.00371839 0.00366769 0.00357827 0.00355547 0.003611 0.00366378 0.00362371 0.0035379 0.00346049 0.00333744 0.00318305 0.00309287 0.00298331 0.00288465 0.00281191 0.00278968 0.00275912 0.0027544 0.00272751 0.00269301 0.00268763 0.00265592 0.00265587 0.00263148 0.00257531 0.00249868 0.00245823 0.00242112 0.00236942 0.00232237 0.00221792 0.0021656 0.00213142 0.0020685 0.00197233 0.00191222 0.00187624 0.0018378 0.00182221 0.00178794 0.00178556 0.0017598 0.00173468 0.0017125 0.00170861 0.00169293 0.0016925 0.00173999 0.00186096 0.00192145
260.535 0.00025 1.65529 0.278021 0.0942181 0.0542545 0.0410974 0.0343773 0.02974 0.0262842 0.0229157 0.020276 0.0186995 0.0178207 0.0169266 0.0158324 0.0146689 0.0138792 0.0132576 0.0127826 0.0122498 0.0116585 0.0109651 0.0101685 0.00957916 0.0090976 0.00860875 0.0081453 0.00764638 0.00725069 0.00686649 0.00647252 0.00627248 0.00615249 0.00613858 0.00602333 0.00587341 0.00581902 0.00568458 0.00574007 0.00558012 0.00546429 0.00543846 0.00526192 0.00499735 0.00473365 0.00443856 0.0042087 0.00411842 0.00403191 0.00389837 0.00379448 0.00371215 0.00366122 0.00357477 0.00355395 0.00361244 0.00366033 0.00361567 0.00353022 0.00345584 0.00333555 0.00317933 0.00308972 0.00297912 0.00288386 0.00281077 0.0027857 0.00275652 0.00275345 0.00272709 0.00269098 0.00268519 0.00265269 0.00265445 0.00263227 0.0025769 0.00250056 0.00245946 0.00242158 0.00236835 0.00232245 0.00221981 0.00216641 0.00212888 0.00206648 0.00197097 0.00191091 0.00187495 0.00183599 0.00181939 0.00178596 0.00178286 0.00175733 0.00173356 0.00171081 0.0017056 0.00169069 0.00169152 0.00173911 0.00185969 0.00192008
260.5375 0.00025 1.65506 0.277977 0.0942091 0.0541917 0.0410815 0.034363 0.0297148 0.0262446 0.0229167 0.0202849 0.0186951 0.0177969 0.0169172 0.0158444 0.0146652 0.0138734 0.0132674 0.0127907 0.0122413 0.011645 0.010952 0.0101656 0.00957662 0.00908797 0.00860497 0.00813397 0.00764078 0.00725383 0.00686525 0.00645565 0.0062606 0.00614536 0.00613422 0.00602083 0.00586924 0.00581646 0.00568051 0.00572647 0.00557529 0.00546517 0.00543577 0.00525651 0.0049942 0.00473729 0.00444421 0.0042151 0.00412734 0.00403673 0.00389614 0.00379176 0.0037071 0.00365659 0.00357215 0.00355349 0.00361355 0.00365667 0.00360739 0.00352318 0.0034508 0.00333306 0.00317577 0.00308657 0.00297508 0.00288336 0.00280974 0.00278244 0.00275364 0.00275286 0.00272678 0.00268864 0.00268254 0.00265054 0.00265224 0.0026316 0.00257827 0.00250311 0.00246169 0.00242133 0.00236799 0.00232166 0.00222196 0.00216747 0.00212647 0.00206466 0.00197007 0.00190948 0.00187342 0.00183393 0.00181662 0.00178375 0.00178021 0.00175463 0.00173227 0.00170927 0.00170233 0.00168873 0.00169037 0.00173835 0.00185947 0.00191843
260.54 0.00025 1.65482 0.277969 0.0941395 0.0540978 0.0410546 0.0343343 0.0296818 0.0262078 0.0229057 0.0202945 0.0186926 0.0177761 0.0169063 0.0158509 0.0146706 0.0138696 0.0132795 0.0127963 0.0122323 0.0116312 0.0109344 0.0101614 0.00957313 0.00908243 0.00860286 0.00812085 0.00763271 0.00725729 0.00686295 0.00644112 0.0062495 0.00613519 0.00612898 0.00601592 0.00586649 0.00581288 0.00567742 0.00571186 0.0055698 0.00546862 0.00543426 0.00525188 0.00498968 0.00474058 0.00445018 0.00422103 0.00413456 0.00404077 0.00389457 0.00378889 0.0037026 0.00365076 0.00356937 0.00355227 0.00361411 0.00365233 0.00360004 0.00351645 0.00344566 0.00333068 0.00317246 0.00308331 0.00297116 0.00288247 0.00280869 0.00277872 0.00275073 0.00275108 0.00272587 0.00268689 0.00268035 0.00264824 0.00264954 0.00263036 0.00257993 0.00250532 0.00246371 0.00242116 0.0023676 0.00232137 0.00222372 0.00216869 0.00212419 0.00206284 0.00196926 0.00190823 0.00187227 0.00183196 0.00181369 0.00178142 0.00177749 0.00175221 0.0017314 0.00170741 0.00169913 0.00168649 0.00168912 0.00173774 0.00185894 0.00191697
260.5425 0.00025 1.65457 0.277689 0.0940946 0.0540183 0.0410527 0.0343017 0.0296441 0.0261751 0.0229038 0.0203062 0.0186933 0.0177595 0.0168889 0.015849 0.0146708 0.0138639 0.0132903 0.0128053 0.0122235 0.0116181 0.0109203 0.0101576 0.00956726 0.00907886 0.00859902 0.00810936 0.00762445 0.00725805 0.00686023 0.00642789 0.00623993 0.0061257 0.00612025 0.00601235 0.0058631 0.00581054 0.00567538 0.0056985 0.00556375 0.00547334 0.00543245 0.00524842 0.00498439 0.00474281 0.004456 0.0042283 0.00414285 0.00404495 0.0038933 0.00378669 0.0036967 0.0036454 0.00356655 0.00355164 0.00361433 0.00364763 0.00359189 0.00350981 0.00344051 0.00332968 0.00316941 0.00307988 0.00296704 0.00288185 0.00280807 0.00277558 0.00274827 0.00274983 0.00272479 0.00268556 0.002678 0.00264713 0.00264664 0.00262786 0.00258129 0.00250831 0.00246682 0.00242107 0.00236697 0.00232076 0.00222528 0.00216984 0.00212207 0.00206131 0.00196852 0.00190705 0.00187063 0.00183003 0.00181106 0.00177935 0.00177475 0.00174943 0.00173027 0.00170574 0.00169561 0.00168399 0.00168841 0.00173687 0.00185786 0.0019159
260.545 0.00025 1.65432 0.277545 0.0939973 0.0539151 0.041027 0.0342826 0.0296022 0.0261332 0.0228965 0.0203236 0.0186948 0.0177445 0.0168711 0.0158483 0.0146727 0.0138591 0.0133036 0.0128123 0.0122141 0.0116049 0.0109017 0.0101541 0.009565 0.00907391 0.00859881 0.00809619 0.00761651 0.0072582 0.00685669 0.00641573 0.0062315 0.00611567 0.00611193 0.00600809 0.00585889 0.00580704 0.00567453 0.00568705 0.0055568 0.00547883 0.00543169 0.00524458 0.00498004 0.00474341 0.0044626 0.0042355 0.00415106 0.00404803 0.00389302 0.00378579 0.0036914 0.00364115 0.00356395 0.00355016 0.00361503 0.00364232 0.00358403 0.00350309 0.00343505 0.00332741 0.00316693 0.0030764 0.00296324 0.0028815 0.00280778 0.00277217 0.0027461 0.00274788 0.00272392 0.0026842 0.00267505 0.0026453 0.00264399 0.00262511 0.00258219 0.00251158 0.00247006 0.00242133 0.00236677 0.00231983 0.00222662 0.0021712 0.00211996 0.00206001 0.00196791 0.00190547 0.00186934 0.00182798 0.00180881 0.00177718 0.00177206 0.00174693 0.00172917 0.00170383 0.00169187 0.00168172 0.00168719 0.00173622 0.00185662 0.00191427
260.5475 0.00025 1.65406 0.277295 0.0938381 0.0538148 0.0410174 0.0342457 0.0295513 0.0260813 0.0228853 0.0203311 0.0187038 0.0177292 0.0168588 0.0158408 0.0146753 0.0138562 0.0133156 0.0128198 0.0122048 0.011592 0.0108847 0.0101503 0.00955906 0.00906813 0.00859754 0.00808247 0.00760436 0.00725776 0.00685332 0.00640558 0.00622414 0.00610876 0.00610265 0.00600207 0.00585444 0.00580412 0.00567308 0.00567416 0.00555037 0.00548507 0.00543092 0.00524204 0.00497607 0.00474377 0.00446805 0.00424322 0.00415871 0.00405088 0.00389379 0.00378276 0.0036871 0.00363749 0.00356135 0.00354831 0.00361361 0.00363674 0.00357642 0.00349615 0.00342884 0.00332555 0.00316453 0.0030726 0.0029592 0.00288082 0.00280725 0.00276907 0.00274418 0.00274713 0.00272302 0.00268265 0.00267127 0.00264479 0.00264147 0.002621 0.00258216 0.00251466 0.00247398 0.00242209 0.0023664 0.0023188 0.00222776 0.00217243 0.00211819 0.00205847 0.00196764 0.00190398 0.00186773 0.00182618 0.00180665 0.00177531 0.00176951 0.00174418 0.00172831 0.00170238 0.00168805 0.00167945 0.00168611 0.0017357 0.00185637 0.00191302
260.55 0.00025 1.6538 0.277144 0.0937437 0.0537029 0.0410089 0.0342095 0.0295037 0.0260357 0.0228674 0.020335 0.0187073 0.0177166 0.0168396 0.0158304 0.0146758 0.0138555 0.0133263 0.0128248 0.0121951 0.0115821 0.0108688 0.0101473 0.00955481 0.0090609 0.00860098 0.00807015 0.00759499 0.00725412 0.00684929 0.00639767 0.0062196 0.00609912 0.00609295 0.00599607 0.00584946 0.00580057 0.00567272 0.00566105 0.00554339 0.00549196 0.00543199 0.00523846 0.00497023 0.00474414 0.00447213 0.0042506 0.00416556 0.00405412 0.00389487 0.00378001 0.0036831 0.00363421 0.00355929 0.00354709 0.00361244 0.00363095 0.00356919 0.00348985 0.00342163 0.00332336 0.00316234 0.00306891 0.00295516 0.00287998 0.00280726 0.00276611 0.00274197 0.002745 0.00272253 0.0026815 0.002668 0.00264443 0.00264007 0.00261609 0.00258131 0.00251837 0.00247846 0.00242312 0.00236581 0.00231782 0.00222859 0.00217373 0.00211649 0.00205726 0.00196727 0.00190255 0.00186626 0.00182422 0.00180456 0.00177346 0.00176673 0.0017418 0.00172742 0.00170041 0.00168417 0.00167701 0.00168495 0.00173511 0.00185557 0.00191188
260.5525 0.00025 1.65354 0.277086 0.0936549 0.0535995 0.0409821 0.0341835 0.0294411 0.0259995 0.0228479 0.020358 0.0187063 0.0177048 0.0168219 0.0158157 0.0146752 0.0138516 0.0133396 0.0128256 0.0121845 0.0115729 0.0108515 0.0101431 0.00955044 0.00905236 0.00860069 0.00805661 0.00758486 0.00724884 0.00684616 0.00639008 0.00621473 0.00609007 0.00608175 0.00598834 0.00584272 0.00579766 0.00567285 0.00564957 0.00553813 0.00549749 0.00543131 0.00523624 0.00496609 0.00474396 0.00447615 0.00425638 0.00417261 0.00405747 0.00389598 0.00377779 0.00367956 0.0036315 0.00355667 0.0035454 0.00361045 0.0036248 0.00356193 0.00348377 0.00341368 0.00332067 0.00316028 0.00306558 0.00295102 0.00287934 0.00280709 0.00276381 0.00273968 0.00274299 0.00272149 0.00268024 0.0026646 0.00264371 0.00263899 0.00261177 0.00257918 0.00252154 0.00248346 0.00242515 0.0023654 0.00231696 0.00222924 0.00217533 0.00211492 0.00205644 0.00196686 0.0019012 0.00186465 0.00182218 0.00180314 0.00177164 0.00176404 0.00173936 0.00172669 0.00169838 0.00168027 0.00167451 0.00168416 0.00173472 0.0018544 0.00191123
260.555 0.00025 1.65327 0.276777 0.0934925 0.0535091 0.0409675 0.0341521 0.0293891 0.025972 0.0228294 0.0203661 0.0187087 0.0176911 0.0168063 0.0158001 0.0146722 0.0138521 0.0133511 0.0128257 0.0121744 0.0115641 0.0108362 0.0101415 0.00954252 0.00904593 0.00860022 0.00804526 0.00757609 0.00724482 0.00684006 0.00638442 0.006214 0.00608259 0.00607159 0.00598199 0.00583689 0.00579452 0.00567316 0.00563813 0.00552977 0.00550274 0.00543074 0.00523419 0.00496221 0.00474429 0.00448016 0.00426183 0.00417981 0.00406002 0.00389824 0.00377556 0.00367589 0.00362974 0.00355524 0.00354301 0.00360796 0.0036183 0.00355487 0.00347834 0.00340681 0.00331894 0.00315847 0.00306154 0.00294718 0.00287835 0.00280708 0.00276105 0.00273735 0.00274087 0.00272003 0.00267935 0.002661 0.00264269 0.00263804 0.00260712 0.00257669 0.00252408 0.00248846 0.00242742 0.00236561 0.00231548 0.00222951 0.00217695 0.0021136 0.00205566 0.00196651 0.00189978 0.00186275 0.00182016 0.00180068 0.00176997 0.00176131 0.00173678 0.0017263 0.00169636 0.00167627 0.00167183 0.00168312 0.00173413 0.0018534 0.00190987
260.5575 0.00025 1.65301 0.276671 0.0933673 0.0534089 0.0409421 0.0341293 0.0293344 0.0259286 0.0228153 0.020376 0.0187116 0.017683 0.0167979 0.0157856 0.0146716 0.0138539 0.0133658 0.0128255 0.0121694 0.0115564 0.0108198 0.0101378 0.00953482 0.00903936 0.00860245 0.00803456 0.00756487 0.00723674 0.00683409 0.00638032 0.00621064 0.00607656 0.00606077 0.00597251 0.00583027 0.00579174 0.00567423 0.00562834 0.00552081 0.00551092 0.00542955 0.00523163 0.00495936 0.00474515 0.004484 0.004266 0.00418538 0.00406227 0.00390041 0.00377425 0.00367282 0.00362726 0.00355285 0.00354038 0.00360432 0.0036114 0.00354776 0.00347251 0.00339922 0.00331626 0.0031569 0.0030575 0.00294314 0.0028773 0.00280693 0.00275919 0.00273501 0.00273877 0.00271883 0.00267861 0.00265764 0.00264206 0.00263766 0.00260232 0.00257299 0.00252582 0.00249382 0.00243009 0.00236677 0.0023141 0.00222955 0.00217831 0.00211264 0.00205482 0.00196634 0.00189853 0.00186059 0.00181821 0.00179854 0.00176858 0.00175854 0.00173438 0.00172571 0.00169433 0.00167227 0.00166937 0.00168197 0.00173349 0.00185327 0.00190861
260.56 0.00025 1.65275 0.276728 0.0932694 0.0533006 0.0409159 0.0341077 0.029286 0.025889 0.0227954 0.0203821 0.0187111 0.0176754 0.0167871 0.0157689 0.0146696 0.0138561 0.0133742 0.0128235 0.0121608 0.0115513 0.010804 0.010134 0.00953081 0.00903259 0.00860203 0.00802816 0.00755393 0.00722814 0.00682666 0.00637674 0.00620863 0.00606865 0.00605142 0.00596326 0.00582082 0.00578763 0.00567706 0.0056176 0.00551262 0.0055163 0.00542777 0.00522945 0.00495682 0.00474608 0.00448735 0.00427093 0.00419061 0.00406431 0.00390312 0.00377279 0.00367064 0.00362517 0.00355066 0.00353938 0.00360142 0.00360416 0.0035413 0.00346702 0.00339077 0.00331416 0.00315545 0.00305423 0.00293889 0.00287642 0.00280716 0.00275725 0.00273262 0.00273596 0.00271703 0.00267769 0.00265488 0.00264128 0.00263813 0.00259841 0.0025683 0.00252647 0.00249842 0.00243376 0.00236763 0.00231284 0.00222959 0.00217969 0.00211189 0.00205386 0.00196594 0.00189766 0.00185866 0.00181601 0.00179631 0.00176704 0.00175573 0.00173166 0.00172532 0.0016922 0.0016683 0.00166666 0.00168095 0.00173307 0.00185292 0.00190795
260.5625 0.00025 1.65251 0.276979 0.0931782 0.053199 0.0408967 0.0340807 0.0292326 0.0258548 0.0227774 0.0203925 0.0187198 0.0176593 0.0167761 0.0157507 0.0146699 0.0138545 0.0133795 0.0128174 0.0121543 0.0115478 0.0107895 0.0101301 0.00952492 0.00902787 0.00860387 0.00801686 0.00754229 0.00722034 0.00681853 0.00637694 0.00620681 0.00606243 0.00604135 0.00595282 0.00581227 0.00578349 0.00568065 0.00561042 0.00550576 0.00552077 0.00542637 0.00522795 0.0049536 0.00474771 0.00449229 0.00427459 0.00419381 0.00406584 0.00390658 0.00377201 0.00366968 0.00362388 0.00354932 0.00353657 0.00359734 0.00359645 0.00353484 0.00346155 0.00338209 0.00331031 0.00315416 0.00305175 0.0029346 0.0028753 0.0028075 0.00275556 0.00273022 0.00273277 0.00271612 0.00267703 0.00265185 0.00263988 0.00263806 0.00259515 0.00256405 0.00252663 0.00250299 0.00243739 0.00236897 0.0023122 0.00222924 0.00218147 0.00211143 0.00205308 0.00196551 0.00189679 0.00185671 0.00181351 0.00179398 0.0017656 0.00175278 0.00172922 0.00172474 0.00169015 0.00166456 0.0016646 0.00167961 0.00173266 0.0018522 0.00190647
260.565 0.00025 1.65227 0.276808 0.0930274 0.053041 0.0408508 0.0340579 0.0291817 0.0258206 0.0227491 0.0204078 0.0187164 0.01765 0.0167636 0.0157352 0.0146663 0.0138578 0.0133792 0.012814 0.012146 0.011545 0.0107798 0.0101251 0.00951871 0.00902363 0.00860035 0.00800649 0.00753325 0.00721227 0.00680841 0.00637607 0.00620755 0.00605573 0.00603172 0.00594278 0.005801 0.00577752 0.00568379 0.00560372 0.00549797 0.00552489 0.00542462 0.00522548 0.00495218 0.0047495 0.00449797 0.00427798 0.00419532 0.00406773 0.0039115 0.00377035 0.00366874 0.00362419 0.00354832 0.00353392 0.00359228 0.00358923 0.00352915 0.00345585 0.00337411 0.00330744 0.00315277 0.00304888 0.00293056 0.00287372 0.00280777 0.00275448 0.00272795 0.00272888 0.00271486 0.00267622 0.00264954 0.00263801 0.00263814 0.00259258 0.00255926 0.00252531 0.00250695 0.00244187 0.002371 0.00231139 0.00222877 0.00218274 0.00211133 0.00205233 0.00196527 0.00189567 0.00185459 0.00181083 0.0017924 0.00176454 0.00174996 0.00172682 0.00172412 0.00168802 0.00166078 0.00166175 0.00167808 0.00173291 0.00185165 0.00190543
260.5675 0.00025 1.65204 0.276869 0.0928358 0.0529238 0.0408139 0.0340332 0.029143 0.0257763 0.0227193 0.0204137 0.0187217 0.0176438 0.0167495 0.015723 0.0146637 0.0138575 0.0133786 0.0128045 0.0121401 0.0115434 0.0107689 0.0101193 0.00951218 0.00902169 0.00859667 0.00799847 0.00752323 0.00720048 0.00679824 0.00637602 0.00620767 0.00604952 0.00602333 0.00593288 0.00578909 0.00577179 0.00568655 0.00559969 0.00549083 0.00552936 0.00542244 0.00522403 0.00494976 0.00475103 0.0045032 0.00428246 0.00419545 0.00406787 0.00391501 0.00377039 0.00366861 0.00362381 0.00354763 0.0035312 0.00358678 0.00358155 0.00352221 0.00345102 0.00336628 0.00330474 0.00315211 0.0030465 0.00292711 0.00287221 0.00280794 0.00275346 0.00272566 0.00272659 0.0027126 0.00267561 0.00264726 0.00263649 0.00263841 0.00259108 0.00255541 0.00252401 0.00251033 0.00244692 0.00237355 0.00231038 0.00222893 0.00218391 0.00211153 0.00205176 0.00196513 0.00189472 0.00185263 0.00180823 0.00178991 0.00176335 0.00174706 0.00172453 0.00172371 0.00168583 0.00165716 0.00165916 0.00167675 0.00173262 0.00185138 0.00190383