260.5025 0.00025 1.65658 0.279206 0.0926955 0.0533492 0.0406859 0.0335771 0.0288617 0.0255715 0.022512 0.0201308 0.018714 0.0179369 0.0166324 0.0154989 0.0146006 0.0138624 0.0130673 0.0126541 0.0122702 0.0115822 0.010948 0.0101817 0.00960703 0.00918521 0.0086362 0.00812345 0.00755344 0.00711168 0.00684026 0.00663408 0.00641636 0.00617466 0.00610236 0.00600836 0.00592605 0.00587079 0.0057441 0.00581897 0.005632 0.00551108 0.00542234 0.00518087 0.00491277 0.00466828 0.0043841 0.00414067 0.00402842 0.00398924 0.00392997 0.00385973 0.00376777 0.0037091 0.00361301 0.00356982 0.00356697 0.00361559 0.00366666 0.00358964 0.00345219 0.00333125 0.00321642 0.00310597 0.00299637 0.00289518 0.002836 0.00283119 0.00276797 0.0027539 0.00276348 0.00273157 0.00271071 0.00265779 0.0026264 0.00261511 0.00258073 0.002502 0.00244418 0.00241293 0.00237316 0.00231761 0.00220198 0.00217039 0.0021552 0.00208857 0.00199967 0.00193356 0.0019019 0.00187115 0.00186117 0.00183205 0.00181906 0.00178874 0.00176497 0.00173368 0.00172543 0.00171098 0.00170146 0.00175146 0.00188121 0.00193658
260.505 0.00025 1.65628 0.279359 0.0927201 0.0533732 0.040652 0.0336138 0.0289158 0.0255995 0.0225233 0.0201044 0.018681 0.0179269 0.0166328 0.0155028 0.0145962 0.01386 0.0130568 0.0126431 0.0122508 0.0115807 0.010956 0.0101717 0.00959235 0.00917547 0.00863189 0.00812469 0.00755137 0.00711242 0.00683795 0.00662272 0.00640603 0.00617357 0.00610358 0.006008 0.00591871 0.00585942 0.00573747 0.00581519 0.00562473 0.00550164 0.00542734 0.00519125 0.00491979 0.00467299 0.00438663 0.00414274 0.00403135 0.00399033 0.00392538 0.00385333 0.00376436 0.00370748 0.00360946 0.00356593 0.00356816 0.00361788 0.00366236 0.00358313 0.00345117 0.00332886 0.00321021 0.00310277 0.00299611 0.00289193 0.00283192 0.0028283 0.00276874 0.00275403 0.00276059 0.00272955 0.00271179 0.00266127 0.00262853 0.00261262 0.00257672 0.00250099 0.00244383 0.00241252 0.00237331 0.00231949 0.00220256 0.00217002 0.00215435 0.00208688 0.00199686 0.00193257 0.00190073 0.00186883 0.00185798 0.00182848 0.00181709 0.00178679 0.00176205 0.0017317 0.00172501 0.00170923 0.00169937 0.00174949 0.00187969 0.00193449
260.5075 0.00025 1.656 0.279413 0.0927881 0.0533596 0.0406059 0.0336332 0.0289477 0.025621 0.0225353 0.0200752 0.0186479 0.0179056 0.0166414 0.0155049 0.0145897 0.0138501 0.0130495 0.0126326 0.0122373 0.0115772 0.0109578 0.0101618 0.00957705 0.00916668 0.00862492 0.00812292 0.00755028 0.00711473 0.00683492 0.00661195 0.00639565 0.00617216 0.00610421 0.00601071 0.00590983 0.00585049 0.0057297 0.00580646 0.00561768 0.00549092 0.00543151 0.00520116 0.0049271 0.00467606 0.00438945 0.00414465 0.00403531 0.00399177 0.00392058 0.00384579 0.00376085 0.00370461 0.00360625 0.00356264 0.0035687 0.00362083 0.00365837 0.00357719 0.00344811 0.00332709 0.00320362 0.00310009 0.00299568 0.00288917 0.00282832 0.00282513 0.00276953 0.00275491 0.0027574 0.00272665 0.00271194 0.00266438 0.00263118 0.00261095 0.00257312 0.00249922 0.00244403 0.00241229 0.00237326 0.00232111 0.00220326 0.00216991 0.00215349 0.00208438 0.00199404 0.00193134 0.0018999 0.00186647 0.0018549 0.00182541 0.00181506 0.0017849 0.00175897 0.00172975 0.00172451 0.00170739 0.00169808 0.00174806 0.00187808 0.00193336
260.51 0.00025 1.65572 0.278996 0.09294 0.0533871 0.0405668 0.0336746 0.0289848 0.0256472 0.0225471 0.0200467 0.018609 0.0178798 0.0166436 0.0155127 0.0145806 0.0138405 0.0130481 0.0126235 0.012222 0.0115747 0.0109591 0.0101551 0.0095679 0.00915482 0.00861898 0.00812289 0.00755155 0.0071183 0.00683143 0.00659852 0.00638318 0.0061709 0.0061048 0.00601033 0.00590179 0.00583987 0.00572164 0.00580302 0.00561178 0.00547767 0.00543355 0.00521136 0.00493374 0.00468071 0.0043923 0.00414845 0.00404099 0.00399472 0.00391609 0.00383915 0.00375624 0.00370112 0.00360191 0.00356059 0.00356993 0.00362426 0.00365455 0.00357041 0.00344795 0.00332524 0.00319771 0.00309685 0.00299545 0.00288685 0.00282542 0.00282191 0.00276937 0.00275606 0.00275491 0.00272449 0.00271081 0.00266687 0.00263439 0.0026099 0.00257001 0.00249786 0.00244442 0.00241205 0.00237297 0.00232287 0.00220456 0.00216963 0.00215214 0.00208182 0.00199111 0.0019302 0.00189877 0.00186428 0.00185202 0.00182201 0.00181288 0.00178329 0.00175611 0.00172784 0.00172387 0.00170605 0.00169641 0.00174643 0.00187695 0.00193126
260.5125 0.00025 1.65546 0.279192 0.0929561 0.0533746 0.0405189 0.0336907 0.0290346 0.0256817 0.0225462 0.02002 0.0185734 0.0178561 0.0166558 0.0155174 0.0145808 0.0138272 0.0130382 0.0126167 0.012204 0.0115744 0.0109537 0.0101451 0.0095576 0.0091414 0.00861372 0.00812157 0.00755456 0.00712284 0.00682829 0.00658401 0.00636935 0.00616916 0.00610767 0.00601136 0.00589385 0.00582995 0.00571499 0.00579423 0.0056056 0.00546762 0.00543305 0.00521994 0.00494046 0.00468504 0.00439505 0.00415224 0.00404571 0.0039966 0.00391249 0.00383238 0.00375231 0.00369734 0.00359756 0.00355748 0.00357089 0.00362639 0.00364864 0.00356427 0.00344714 0.00332322 0.00319232 0.00309288 0.00299476 0.00288483 0.00282194 0.00281749 0.00276926 0.00275744 0.00275318 0.00272137 0.00270892 0.00266919 0.00263785 0.00261025 0.00256718 0.0024965 0.00244454 0.00241191 0.00237234 0.00232397 0.00220612 0.00216959 0.00215055 0.00207985 0.00198856 0.00192904 0.00189778 0.00186209 0.00184897 0.0018187 0.00181072 0.00178134 0.00175333 0.00172615 0.00172297 0.00170406 0.00169479 0.00174491 0.00187631 0.00192892
260.515 0.00025 1.6552 0.278972 0.0929611 0.0533925 0.0404656 0.033711 0.0290638 0.0257064 0.022551 0.0199972 0.0185371 0.0178353 0.0166766 0.0155227 0.0145642 0.0138148 0.0130393 0.0126051 0.0121874 0.0115698 0.0109475 0.0101367 0.00954964 0.00912629 0.00860894 0.00811977 0.00755643 0.00712913 0.00682621 0.00656881 0.00635413 0.00616654 0.00611025 0.00601189 0.00588536 0.00582114 0.00570842 0.00578882 0.00559579 0.00545607 0.00543247 0.00522751 0.00494689 0.00468988 0.0043967 0.00415704 0.00405107 0.00399863 0.00390926 0.00382703 0.00374796 0.00369302 0.00359412 0.00355521 0.00357204 0.00362918 0.0036431 0.00355753 0.00344509 0.0033211 0.00318673 0.00308899 0.00299366 0.00288322 0.00281886 0.00281311 0.00276934 0.00275835 0.00275106 0.00271864 0.00270621 0.00267032 0.00264129 0.00261083 0.0025644 0.0024949 0.00244467 0.00241206 0.00237176 0.00232529 0.00220791 0.00216953 0.00214913 0.00207765 0.00198661 0.00192902 0.00189661 0.00186021 0.00184609 0.00181537 0.00180828 0.00177921 0.00175051 0.00172405 0.00172176 0.00170226 0.00169331 0.00174326 0.00187577 0.00192664
260.5175 0.00025 1.65495 0.278809 0.0929425 0.0534029 0.040425 0.0337303 0.0290936 0.0257288 0.0225601 0.0199832 0.0185098 0.017801 0.0166887 0.0155392 0.0145542 0.0138039 0.0130422 0.012596 0.0121706 0.011564 0.0109434 0.0101271 0.00953988 0.00911188 0.00860277 0.00811776 0.00755582 0.00713326 0.0068255 0.00655481 0.00633949 0.00616538 0.006114 0.00601311 0.00587966 0.00581226 0.00570126 0.00578322 0.0055897 0.005446 0.00542897 0.00523217 0.00495336 0.00469421 0.0044 0.00416096 0.00405698 0.00400127 0.00390648 0.00382122 0.00374546 0.00368814 0.00359065 0.00355247 0.0035734 0.00363119 0.00363803 0.0035511 0.0034436 0.00331924 0.00318209 0.0030856 0.00299196 0.00288217 0.00281631 0.00280884 0.00276835 0.00275934 0.00274988 0.00271619 0.00270436 0.00267053 0.00264445 0.0026124 0.00256291 0.00249365 0.00244507 0.00241259 0.00237078 0.00232647 0.00220978 0.0021696 0.00214716 0.0020752 0.00198471 0.00192831 0.0018955 0.00185824 0.00184344 0.00181192 0.00180591 0.00177714 0.00174845 0.00172198 0.00172065 0.00170051 0.00169229 0.00174238 0.00187437 0.00192527
260.52 0.00025 1.65471 0.278652 0.0929469 0.0533837 0.0403839 0.0337504 0.0291185 0.0257328 0.0225569 0.0199715 0.018473 0.0177712 0.0166992 0.0155458 0.0145414 0.0137926 0.0130447 0.0125896 0.0121594 0.0115598 0.0109369 0.0101161 0.00953299 0.00909842 0.0085969 0.00811231 0.00755548 0.00713826 0.00682328 0.0065395 0.00632376 0.00616224 0.00611879 0.00601275 0.00587267 0.00580303 0.00569176 0.00577566 0.00558252 0.00543532 0.00542492 0.00523588 0.00496076 0.00469898 0.00440318 0.00416662 0.00406384 0.00400434 0.00390432 0.00381691 0.00374136 0.00368338 0.00358644 0.00354948 0.00357633 0.00363331 0.00363277 0.00354439 0.0034417 0.00331729 0.00317731 0.00308245 0.00298927 0.00288133 0.00281407 0.00280434 0.00276634 0.00276036 0.00274903 0.00271406 0.00270148 0.00266968 0.00264782 0.00261382 0.00256166 0.00249235 0.00244498 0.00241327 0.00236986 0.00232744 0.00221168 0.00216976 0.00214486 0.00207301 0.00198263 0.00192742 0.00189472 0.00185633 0.00184061 0.00180863 0.00180353 0.00177494 0.00174596 0.00172004 0.00171926 0.00169859 0.00169086 0.00174091 0.00187292 0.00192328
260.5225 0.00025 1.65448 0.278555 0.0929304 0.0533726 0.0403559 0.0337396 0.0291345 0.0257494 0.0225626 0.019965 0.0184549 0.0177403 0.0167102 0.0155572 0.0145322 0.0137842 0.0130511 0.0125837 0.0121465 0.0115552 0.010926 0.0101076 0.00952542 0.00908598 0.00858741 0.00810622 0.00755515 0.00714496 0.00682134 0.00652199 0.00630894 0.00615779 0.00612156 0.0060123 0.00586629 0.00579689 0.00568353 0.00577039 0.00557659 0.00542555 0.00541968 0.00523654 0.00496656 0.00470405 0.00440678 0.00417222 0.00407044 0.00400717 0.00390205 0.00381242 0.00373818 0.00367704 0.00358242 0.00354669 0.00357818 0.00363474 0.00362642 0.00353839 0.00343997 0.00331713 0.00317307 0.00307863 0.002987 0.00288085 0.00281177 0.00280013 0.00276617 0.00276191 0.00274776 0.00271128 0.00269809 0.00266793 0.0026503 0.00261591 0.0025611 0.00249103 0.0024459 0.00241332 0.00236878 0.00232773 0.00221371 0.00217007 0.00214256 0.00207071 0.00198093 0.00192655 0.00189362 0.00185417 0.00183796 0.00180566 0.00180098 0.0017728 0.00174373 0.00171808 0.00171756 0.00169701 0.00168977 0.00173948 0.0018718 0.00192134
260.525 0.00025 1.65425 0.278266 0.0929394 0.0533396 0.0403154 0.0337641 0.0291506 0.0257533 0.0225631 0.0199689 0.0184461 0.0177162 0.0167116 0.0155692 0.0145239 0.0137746 0.0130552 0.0125811 0.0121303 0.0115468 0.0109156 0.0100989 0.00951927 0.00907579 0.0085779 0.00809867 0.00755448 0.00715019 0.00682013 0.00650506 0.00629321 0.00615424 0.00612465 0.00601201 0.00586161 0.00578919 0.00567469 0.00576206 0.00556906 0.00541706 0.00541344 0.00523661 0.00497061 0.00470994 0.00440973 0.00417841 0.0040783 0.00401059 0.00389987 0.00380799 0.00373474 0.00367201 0.00357864 0.00354474 0.00358 0.00363609 0.0036194 0.00353207 0.00343756 0.00331499 0.00316878 0.00307429 0.00298375 0.00288034 0.00280974 0.00279567 0.00276373 0.00276237 0.0027468 0.00270885 0.00269588 0.00266562 0.00265227 0.00261869 0.0025614 0.0024903 0.00244683 0.0024135 0.00236805 0.00232792 0.00221569 0.00217069 0.00213995 0.00206848 0.00197952 0.00192584 0.00189246 0.00185209 0.00183526 0.00180306 0.00179852 0.00177074 0.0017418 0.00171612 0.00171561 0.00169495 0.00168824 0.00173816 0.00187043 0.00191979
260.5275 0.00025 1.65402 0.277965 0.0928772 0.0533308 0.0403121 0.0337637 0.0291706 0.0257765 0.0225584 0.019963 0.0184341 0.0176869 0.0167137 0.015587 0.0145153 0.013763 0.0130651 0.0125798 0.0121139 0.0115385 0.0109014 0.0100891 0.009515 0.00906336 0.00857272 0.00809259 0.00755427 0.00715878 0.00681994 0.00648734 0.00627751 0.00615059 0.00612723 0.00601176 0.00585559 0.00578259 0.00566939 0.00575351 0.00556155 0.00541078 0.0054089 0.00523464 0.00497278 0.00471476 0.00441466 0.00418383 0.00408507 0.00401488 0.00389826 0.0038053 0.00372889 0.00366521 0.00357518 0.00354266 0.00358177 0.00363601 0.00361199 0.00352601 0.00343436 0.00331397 0.00316526 0.00307145 0.00298019 0.00288001 0.00280796 0.00279154 0.00276105 0.00276272 0.00274536 0.00270612 0.00269341 0.00266341 0.00265382 0.0026209 0.00256223 0.00248951 0.00244762 0.00241341 0.00236734 0.0023281 0.00221811 0.00217131 0.00213728 0.00206653 0.00197815 0.00192478 0.00189135 0.00185002 0.00183241 0.00180026 0.0017959 0.00176834 0.00173995 0.00171432 0.00171342 0.00169285 0.00168757 0.00173699 0.00186916 0.00191814
260.53 0.00025 1.65379 0.277848 0.0928422 0.0532792 0.0402959 0.0337648 0.0291744 0.0257745 0.0225395 0.0199617 0.0184429 0.0176634 0.0167177 0.0156052 0.0145052 0.0137615 0.0130782 0.0125767 0.0121008 0.0115307 0.010885 0.01008 0.009507 0.00905403 0.00856869 0.00807983 0.00755305 0.00716517 0.00681768 0.00647066 0.0062643 0.00614491 0.0061284 0.00600939 0.00585179 0.00577651 0.00566289 0.0057432 0.00555432 0.00540779 0.00540498 0.00523253 0.00497305 0.00472141 0.00441913 0.00418982 0.00409441 0.0040186 0.00389593 0.00380183 0.00372414 0.00365906 0.00357147 0.00354196 0.00358288 0.00363556 0.00360597 0.0035201 0.00343256 0.00331255 0.0031624 0.00306793 0.00297655 0.0028795 0.00280635 0.00278709 0.0027579 0.0027625 0.00274379 0.00270447 0.00269004 0.00266039 0.00265431 0.00262308 0.00256323 0.00248966 0.00244807 0.00241321 0.00236648 0.00232804 0.00222078 0.00217201 0.00213459 0.00206478 0.00197694 0.00192386 0.00189016 0.00184812 0.00182956 0.00179766 0.00179328 0.0017661 0.00173808 0.00171231 0.00171085 0.00169094 0.00168656 0.0017365 0.0018683 0.00191645
260.5325 0.00025 1.65357 0.277875 0.0928251 0.0532627 0.0402695 0.0337651 0.0291893 0.0257697 0.022523 0.0199575 0.0184389 0.0176441 0.0167115 0.0156245 0.0144987 0.0137522 0.0130881 0.0125769 0.012084 0.0115204 0.0108726 0.0100715 0.00949956 0.00904428 0.00856018 0.00806684 0.00755174 0.00716955 0.00681732 0.00645399 0.00624956 0.00613895 0.00612927 0.00600785 0.00584753 0.00577144 0.00565618 0.00573081 0.00554909 0.00540474 0.00540227 0.00522814 0.00497181 0.00472644 0.00442362 0.00419618 0.00410166 0.00402202 0.00389473 0.00379865 0.00372013 0.00365308 0.00356795 0.00354134 0.00358635 0.00363438 0.00359932 0.00351385 0.00343011 0.00331105 0.00315883 0.00306472 0.00297271 0.00287949 0.00280491 0.00278325 0.00275548 0.00276238 0.00274234 0.00270234 0.00268755 0.00265738 0.00265372 0.00262491 0.00256494 0.00249042 0.00244926 0.00241343 0.00236613 0.00232778 0.00222306 0.00217271 0.00213209 0.00206307 0.00197612 0.00192283 0.00188919 0.0018466 0.00182698 0.00179515 0.00179052 0.00176389 0.0017365 0.00171026 0.00170849 0.00168908 0.0016853 0.00173561 0.00186702 0.00191447
260.535 0.00025 1.65335 0.277726 0.0928122 0.0531643 0.0402596 0.0337569 0.0291858 0.0257631 0.0225095 0.0199638 0.0184422 0.0176227 0.0167022 0.0156393 0.014494 0.0137374 0.0130962 0.0125819 0.0120741 0.0115125 0.0108567 0.0100635 0.00949273 0.0090327 0.00855583 0.00805501 0.00755245 0.00717624 0.0068152 0.00643851 0.00623872 0.00613431 0.00612742 0.006007 0.00584444 0.00576957 0.00564947 0.0057193 0.00554094 0.00540177 0.00539779 0.00522426 0.00496935 0.00473155 0.00442949 0.0042034 0.00410966 0.00402553 0.00389526 0.00379562 0.00371407 0.00364687 0.00356373 0.00353968 0.00358791 0.00363229 0.00359241 0.00350741 0.00342762 0.00331083 0.00315613 0.00306208 0.00296831 0.002879 0.00280377 0.00277875 0.00275259 0.00276132 0.00274174 0.00269997 0.00268515 0.00265451 0.00265268 0.00262626 0.00256721 0.0024924 0.00245005 0.00241387 0.00236546 0.00232789 0.00222506 0.0021734 0.00212936 0.00206135 0.00197516 0.00192177 0.00188795 0.00184508 0.00182444 0.00179293 0.00178789 0.00176161 0.00173514 0.00170847 0.0017054 0.0016869 0.00168439 0.00173476 0.00186568 0.00191279
260.5375 0.00025 1.65313 0.277666 0.0927937 0.0531059 0.0402596 0.0337471 0.0291683 0.0257388 0.0225083 0.0199714 0.0184379 0.0176023 0.0167005 0.0156546 0.0144881 0.0137313 0.0131029 0.0125864 0.0120661 0.0115013 0.0108421 0.0100591 0.00948744 0.00902155 0.0085523 0.00804539 0.00754669 0.00717915 0.00681552 0.00642267 0.00622712 0.00612854 0.00612531 0.00600612 0.00583932 0.0057679 0.00564468 0.00570538 0.00553443 0.0054014 0.00539375 0.00521845 0.00496668 0.0047347 0.00443565 0.00421054 0.00411893 0.00403027 0.00389429 0.00379374 0.00370931 0.00364171 0.0035605 0.00353887 0.00358934 0.00362963 0.0035851 0.00350178 0.00342387 0.00330963 0.00315316 0.00305905 0.00296387 0.00287854 0.00280289 0.00277516 0.00274917 0.00276053 0.00274053 0.00269735 0.0026823 0.00265255 0.00265108 0.00262606 0.00256929 0.0024951 0.00245187 0.00241365 0.00236529 0.0023271 0.00222735 0.00217436 0.00212672 0.00205984 0.00197467 0.00192051 0.00188663 0.00184319 0.001822 0.00179049 0.00178525 0.00175898 0.00173374 0.00170678 0.00170207 0.00168512 0.00168322 0.00173396 0.00186537 0.00191096
260.54 0.00025 1.65289 0.277665 0.0927359 0.0530098 0.0402349 0.0337212 0.0291433 0.0257139 0.022491 0.0199796 0.0184384 0.0175857 0.0166917 0.015664 0.014495 0.0137245 0.0131117 0.0125878 0.0120572 0.0114879 0.010822 0.0100531 0.00948111 0.00901443 0.0085491 0.00803174 0.0075378 0.00718212 0.00681388 0.00640879 0.0062164 0.006119 0.00612155 0.00600259 0.00583575 0.00576492 0.00564131 0.00569031 0.00552723 0.00540456 0.00539019 0.00521338 0.00496189 0.00473782 0.00444169 0.00421682 0.00412618 0.0040339 0.00389414 0.00379144 0.00370491 0.0036363 0.00355702 0.00353733 0.00359028 0.00362646 0.00357914 0.00349691 0.0034208 0.00330836 0.00315086 0.00305632 0.00295941 0.00287774 0.00280181 0.00277114 0.00274604 0.00275839 0.00273917 0.0026953 0.00267978 0.00265042 0.00264901 0.00262513 0.00257153 0.00249759 0.0024535 0.00241344 0.00236523 0.00232679 0.0022291 0.00217535 0.00212444 0.00205846 0.00197417 0.00191956 0.00188541 0.0018414 0.00181939 0.0017879 0.00178256 0.00175645 0.00173285 0.00170477 0.00169867 0.00168311 0.00168182 0.00173349 0.00186464 0.00190938
260.5425 0.00025 1.65266 0.277399 0.0927004 0.0529278 0.0402456 0.0336924 0.0291134 0.0256983 0.022488 0.0199896 0.0184429 0.0175733 0.0166796 0.0156647 0.0144916 0.0137163 0.013119 0.0125945 0.0120476 0.0114773 0.0108068 0.010047 0.00947297 0.00900831 0.00854473 0.00802098 0.00752982 0.00718316 0.00681135 0.00639656 0.00620742 0.00611051 0.00611505 0.00600051 0.0058316 0.00576365 0.00563826 0.00567624 0.00551948 0.00540874 0.00538651 0.00520919 0.00495662 0.00473922 0.0044474 0.00422482 0.00413487 0.00403796 0.00389396 0.00379063 0.00369914 0.00363096 0.00355328 0.00353629 0.00359067 0.00362315 0.00357237 0.00349159 0.00341733 0.0033089 0.00314843 0.00305368 0.002955 0.00287711 0.00280101 0.00276791 0.00274328 0.00275685 0.00273745 0.00269366 0.00267762 0.00264931 0.00264672 0.00262323 0.00257365 0.00250085 0.00245624 0.00241331 0.00236496 0.00232616 0.00223083 0.00217618 0.0021222 0.00205754 0.00197391 0.00191884 0.00188382 0.00183984 0.00181716 0.00178557 0.00177985 0.00175373 0.0017316 0.00170296 0.00169502 0.00168064 0.00168123 0.00173264 0.00186346 0.00190799
260.545 0.00025 1.65241 0.277266 0.0926341 0.0528373 0.0402249 0.0336844 0.0290794 0.0256697 0.022478 0.0200047 0.0184471 0.0175599 0.0166646 0.0156684 0.0144936 0.0137075 0.0131267 0.0126003 0.012037 0.0114644 0.010786 0.0100429 0.00946848 0.00900114 0.00854339 0.00800823 0.00752154 0.00718363 0.00680899 0.00638489 0.0061993 0.00610156 0.00610861 0.00599796 0.00582694 0.00576161 0.0056367 0.00566371 0.00550977 0.00541334 0.00538416 0.00520494 0.00495186 0.00473944 0.00445375 0.00423261 0.00414342 0.0040413 0.00389492 0.00379122 0.00369363 0.00362637 0.00355039 0.00353486 0.00359249 0.00361834 0.00356563 0.00348609 0.00341345 0.00330805 0.00314667 0.00305091 0.00295101 0.00287667 0.00280081 0.00276434 0.0027409 0.00275458 0.00273594 0.00269163 0.00267466 0.00264732 0.00264461 0.00262078 0.00257507 0.00250486 0.00245909 0.00241361 0.00236492 0.00232524 0.00223225 0.00217721 0.00212002 0.00205674 0.00197365 0.00191759 0.0018826 0.00183806 0.00181513 0.0017832 0.00177719 0.00175119 0.0017304 0.00170098 0.00169106 0.00167839 0.00167996 0.00173196 0.00186216 0.00190601
260.5475 0.00025 1.65216 0.277019 0.0924815 0.0527394 0.0402233 0.0336441 0.0290331 0.0256298 0.022469 0.0200117 0.0184633 0.0175457 0.0166584 0.0156641 0.0144922 0.0137016 0.0131364 0.0126055 0.0120295 0.0114535 0.0107684 0.0100345 0.00946077 0.00899258 0.00854046 0.00799376 0.00750989 0.00718411 0.00680694 0.00637556 0.00619214 0.00609477 0.00610108 0.00599376 0.00582154 0.00576036 0.00563585 0.00565031 0.00550103 0.00541901 0.00538193 0.00520087 0.00494797 0.00473939 0.00445942 0.0042408 0.00415104 0.00404424 0.00389705 0.00378915 0.00368928 0.00362322 0.00354686 0.0035327 0.00359144 0.00361358 0.00355946 0.00348053 0.00340857 0.00330751 0.00314533 0.00304806 0.00294623 0.00287559 0.00280049 0.00276129 0.00273856 0.00275347 0.00273463 0.00268937 0.00267064 0.00264643 0.00264257 0.00261744 0.00257562 0.00250815 0.00246272 0.00241427 0.00236489 0.00232426 0.00223354 0.00217816 0.00211845 0.00205576 0.00197374 0.00191644 0.00188094 0.00183659 0.00181324 0.00178123 0.00177481 0.00174845 0.00172948 0.00169946 0.00168699 0.00167636 0.00167899 0.00173155 0.00186153 0.00190459
260.55 0.00025 1.65191 0.276872 0.0923838 0.052634 0.0402286 0.03361 0.0289919 0.0255938 0.0224518 0.0200106 0.0184661 0.0175361 0.0166458 0.015656 0.014497 0.0136973 0.0131405 0.012613 0.0120198 0.0114462 0.0107513 0.0100293 0.00945233 0.00898316 0.00854177 0.00798318 0.00750062 0.00718057 0.00680341 0.00636797 0.00618825 0.00608513 0.00609296 0.00598826 0.00581683 0.00575849 0.00563602 0.00563594 0.00549136 0.00542602 0.00538111 0.00519622 0.00494153 0.00473873 0.00446316 0.00424791 0.00415783 0.00404789 0.00389927 0.00378773 0.00368521 0.00362002 0.00354399 0.00353146 0.00359097 0.00360855 0.00355319 0.00347519 0.00340329 0.00330663 0.00314404 0.00304534 0.00294191 0.00287436 0.00280062 0.00275864 0.00273607 0.00275084 0.00273339 0.00268746 0.00266726 0.00264541 0.00264163 0.00261305 0.00257524 0.00251244 0.00246702 0.00241528 0.00236466 0.0023232 0.0022346 0.00217909 0.00211682 0.00205529 0.00197377 0.00191536 0.00187939 0.00183497 0.00181143 0.00177915 0.00177209 0.00174598 0.00172854 0.00169754 0.0016828 0.00167395 0.00167786 0.00173112 0.00186058 0.00190321
260.5525 0.00025 1.65165 0.276833 0.0923056 0.0525476 0.0402004 0.033592 0.028933 0.0255705 0.022437 0.0200379 0.0184713 0.0175227 0.0166298 0.0156425 0.0144944 0.0136897 0.0131521 0.0126113 0.012009 0.0114372 0.0107346 0.0100225 0.00944746 0.00897304 0.00853976 0.00796898 0.00749158 0.0071763 0.00680018 0.00636099 0.00618463 0.00607597 0.00608236 0.00598162 0.00580936 0.00575701 0.00563573 0.00562446 0.00548378 0.00543205 0.00537954 0.0051934 0.00493697 0.00473731 0.0044671 0.00425343 0.00416517 0.00405171 0.00390177 0.00378659 0.00368189 0.00361729 0.00354044 0.00352978 0.00358947 0.00360294 0.00354706 0.00347072 0.00339675 0.00330476 0.00314317 0.00304311 0.00293772 0.00287298 0.00280037 0.00275646 0.00273367 0.00274852 0.00273189 0.00268548 0.0026635 0.00264403 0.00264078 0.00260927 0.00257367 0.00251582 0.00247204 0.00241708 0.00236464 0.0023225 0.00223543 0.00218038 0.00211522 0.00205532 0.00197373 0.00191435 0.00187785 0.00183331 0.00181035 0.00177711 0.00176957 0.00174358 0.0017278 0.00169549 0.00167859 0.00167149 0.00167721 0.00173078 0.00185946 0.00190229
260.555 0.00025 1.65139 0.276525 0.0921596 0.0524662 0.0401971 0.0335617 0.0288874 0.0255464 0.0224256 0.0200405 0.0184781 0.0175066 0.0166206 0.0156309 0.0144905 0.0136878 0.0131619 0.0126121 0.0120003 0.0114285 0.0107192 0.0100187 0.00943715 0.00896491 0.00853743 0.00795813 0.0074831 0.00717232 0.00679398 0.00635622 0.00618531 0.00606804 0.00607376 0.0059769 0.00580387 0.00575535 0.00563658 0.00561201 0.00547383 0.00543697 0.00537739 0.00519024 0.00493236 0.00473676 0.00447083 0.00425857 0.00417234 0.00405464 0.00390506 0.00378566 0.00367815 0.00361485 0.00353868 0.00352746 0.00358749 0.00359709 0.00354083 0.0034658 0.00339148 0.0033044 0.00314239 0.00304034 0.00293362 0.00287133 0.00280025 0.00275395 0.00273132 0.00274568 0.00272998 0.00268377 0.00265975 0.00264235 0.00263965 0.00260499 0.00257189 0.00251895 0.00247727 0.00241926 0.00236516 0.00232109 0.00223589 0.00218144 0.00211401 0.00205523 0.00197369 0.00191321 0.00187587 0.00183169 0.00180819 0.00177519 0.0017669 0.00174093 0.00172721 0.00169347 0.00167437 0.0016688 0.00167623 0.00173023 0.0018584 0.00190062
260.5575 0.00025 1.65113 0.276421 0.0920353 0.0523752 0.0401846 0.0335438 0.0288438 0.0255093 0.0224144 0.0200491 0.0184892 0.0174976 0.0166104 0.0156149 0.0144919 0.0136894 0.0131743 0.0126129 0.0119966 0.011421 0.0107041 0.0100108 0.00942797 0.00895605 0.008537 0.00794793 0.00747235 0.00716452 0.00678747 0.00635254 0.00618281 0.00606271 0.00606332 0.00596864 0.0057983 0.00575437 0.00563785 0.00560207 0.00546248 0.00544477 0.00537574 0.00518659 0.0049291 0.00473662 0.00447452 0.00426231 0.00417784 0.00405705 0.00390876 0.003786 0.00367493 0.0036124 0.00353572 0.00352495 0.00358465 0.00359073 0.00353508 0.00346153 0.00338535 0.00330291 0.00314152 0.00303793 0.00292965 0.00286964 0.00279978 0.00275228 0.00272882 0.00274301 0.0027281 0.00268233 0.00265584 0.00264123 0.00263897 0.0026007 0.00256879 0.00252099 0.00248269 0.00242189 0.00236663 0.00231996 0.00223609 0.00218233 0.00211325 0.00205511 0.00197393 0.0019123 0.00187357 0.0018302 0.00180641 0.00177373 0.00176422 0.00173833 0.00172674 0.00169142 0.00167 0.00166641 0.00167514 0.0017297 0.00185822 0.00189907
260.56 0.00025 1.65088 0.276495 0.0919494 0.0522753 0.0401572 0.033526 0.028799 0.0254712 0.0223967 0.0200539 0.0184916 0.0174914 0.0166041 0.0155971 0.0144912 0.0136906 0.0131803 0.0126108 0.0119904 0.0114189 0.0106883 0.0100036 0.00942151 0.00894779 0.00853548 0.00793958 0.00746176 0.00715703 0.00677959 0.00634973 0.00618213 0.00605421 0.00605461 0.00595955 0.00578939 0.00575208 0.00564055 0.00559043 0.00545245 0.0054506 0.00537358 0.0051834 0.0049258 0.00473661 0.00447751 0.00426672 0.00418323 0.00406006 0.00391284 0.00378543 0.003673 0.00361008 0.00353283 0.00352387 0.00358259 0.00358391 0.00352965 0.00345675 0.00337777 0.00330152 0.00314081 0.00303581 0.00292554 0.00286802 0.00279979 0.00275037 0.00272656 0.00273942 0.00272604 0.00268065 0.0026526 0.00263961 0.00263881 0.00259704 0.00256459 0.00252212 0.00248757 0.00242528 0.00236777 0.00231891 0.0022362 0.00218325 0.00211252 0.00205494 0.00197395 0.00191177 0.00187147 0.0018284 0.00180442 0.00177198 0.00176156 0.00173554 0.0017264 0.00168935 0.00166577 0.00166365 0.00167415 0.00172937 0.00185769 0.00189819
260.5625 0.00025 1.65064 0.276766 0.0918649 0.0521837 0.040144 0.0335001 0.0287452 0.0254369 0.0223814 0.0200619 0.0185057 0.0174709 0.0165931 0.0155762 0.0144915 0.0136897 0.0131871 0.0126058 0.0119859 0.0114164 0.0106746 0.00999681 0.00941576 0.00894155 0.00853745 0.00792765 0.00745024 0.00714912 0.00677061 0.00635027 0.00618143 0.0060481 0.00604503 0.00595032 0.00578046 0.0057489 0.00564384 0.00558234 0.00544526 0.00545533 0.00537195 0.00518152 0.00492163 0.00473696 0.00448205 0.00426933 0.00418655 0.00406186 0.00391774 0.00378614 0.00367252 0.00360896 0.00353138 0.00352114 0.00357889 0.00357695 0.00352422 0.00345273 0.00337052 0.00329828 0.00314031 0.0030346 0.00292158 0.00286607 0.00279975 0.00274873 0.00272421 0.00273572 0.00272452 0.00267932 0.00264895 0.00263755 0.00263821 0.00259416 0.00256099 0.00252255 0.00249241 0.00242892 0.0023693 0.00231836 0.0022361 0.00218456 0.00211222 0.00205492 0.00197386 0.00191104 0.00186938 0.00182632 0.00180235 0.00177042 0.00175872 0.00173289 0.00172578 0.00168744 0.00166165 0.00166162 0.00167294 0.00172905 0.00185693 0.00189637
260.565 0.00025 1.65041 0.276596 0.0917341 0.0520289 0.0401011 0.0334824 0.0286944 0.0254008 0.0223587 0.0200776 0.0185035 0.0174643 0.0165765 0.0155589 0.0144905 0.0136904 0.0131874 0.0126039 0.0119792 0.0114111 0.0106663 0.00999136 0.00940916 0.00893597 0.00853205 0.00791639 0.00744005 0.00714184 0.0067603 0.00634917 0.00618255 0.00604172 0.00603514 0.00594081 0.0057692 0.00574454 0.00564629 0.00557452 0.00543653 0.00546034 0.00537091 0.00517852 0.00491921 0.00473728 0.00448719 0.00427222 0.00418795 0.00406399 0.0039246 0.00378522 0.00367182 0.0036094 0.00353013 0.0035187 0.00357417 0.0035703 0.00351964 0.00344797 0.00336404 0.00329667 0.00313968 0.00303275 0.002918 0.00286377 0.00279961 0.00274745 0.002722 0.0027314 0.00272267 0.00267785 0.00264601 0.00263485 0.00263788 0.0025918 0.00255661 0.00252173 0.00249677 0.00243336 0.00237152 0.00231768 0.002236 0.00218547 0.00211216 0.00205488 0.00197406 0.00191017 0.00186707 0.00182405 0.00180074 0.00176918 0.00175612 0.00173039 0.00172523 0.00168534 0.00165753 0.00165882 0.00167156 0.00172958 0.00185625 0.00189523
260.5675 0.00025 1.65018 0.276665 0.0915559 0.0519199 0.0400601 0.0334581 0.0286618 0.0253499 0.0223308 0.0200845 0.0185072 0.0174612 0.0165617 0.0155435 0.014492 0.0136906 0.0131883 0.0125962 0.0119764 0.0114095 0.0106541 0.00998233 0.0094019 0.00893147 0.0085283 0.00790797 0.00743021 0.00713139 0.00674903 0.00634996 0.00618398 0.00603554 0.00602658 0.00593207 0.00575726 0.0057406 0.00564903 0.00556951 0.00542888 0.00546545 0.0053688 0.00517662 0.00491564 0.0047369 0.00449151 0.00427567 0.00418813 0.00406408 0.00392954 0.00378628 0.00367149 0.00360903 0.00352904 0.00351618 0.00356915 0.00356352 0.00351341 0.00344446 0.00335715 0.00329441 0.0031393 0.0030309 0.00291482 0.00286186 0.00279936 0.00274632 0.00271992 0.00272843 0.00271999 0.00267641 0.00264315 0.00263251 0.00263739 0.00259014 0.00255313 0.00252078 0.00250044 0.00243859 0.00237416 0.00231686 0.00223607 0.00218639 0.00211245 0.00205516 0.00197453 0.00190943 0.00186502 0.0018218 0.00179842 0.00176803 0.00175338 0.00172804 0.00172483 0.00168317 0.00165377 0.00165628 0.00167027 0.00172946 0.00185596 0.00189339