260.5025 0.00025 1.65961 0.27817 0.0922282 0.0532389 0.0408391 0.0338297 0.0290734 0.0257618 0.0226475 0.0202725 0.0188163 0.0180354 0.0168171 0.0155765 0.0146859 0.0139698 0.0131481 0.0127858 0.0123846 0.0117092 0.0110626 0.0102517 0.00968608 0.00927361 0.0087008 0.00820964 0.00763149 0.00718327 0.00691724 0.00672651 0.00649277 0.00624225 0.00616685 0.00604062 0.00594801 0.00590478 0.00580119 0.00591809 0.00571338 0.00557534 0.00551467 0.00524456 0.00497234 0.00471217 0.00440096 0.00414659 0.00403091 0.0040013 0.00394953 0.00386371 0.00375932 0.00370968 0.00359581 0.00356397 0.00357536 0.00363624 0.00369733 0.00364788 0.00351665 0.00338725 0.00325597 0.00314022 0.00302306 0.00290024 0.00283391 0.00283135 0.0027633 0.00273698 0.00274415 0.00271664 0.00270412 0.00265232 0.00262614 0.00263483 0.00260413 0.00252404 0.00246021 0.00241979 0.00238615 0.00232443 0.00220763 0.00217551 0.00216135 0.00210061 0.00201085 0.00193863 0.00189449 0.00186613 0.00185759 0.0018232 0.00181026 0.00178696 0.00175808 0.00172685 0.00172247 0.00170533 0.00168326 0.0017423 0.00183734 0.00197452
260.505 0.00025 1.65932 0.27834 0.0922343 0.0532692 0.0408112 0.0338571 0.0291259 0.0257938 0.0226554 0.0202395 0.0187805 0.0180181 0.0168195 0.0155818 0.0146869 0.0139667 0.0131391 0.012773 0.0123617 0.0117105 0.01107 0.0102383 0.00967081 0.00926081 0.00869566 0.00821425 0.00763406 0.00718718 0.00691572 0.00671211 0.00648044 0.00623962 0.006167 0.00603978 0.00594028 0.00589077 0.00579329 0.00591316 0.00570393 0.00556381 0.00552165 0.00525753 0.00497989 0.0047159 0.00440367 0.00414898 0.00403551 0.00400398 0.00394548 0.00385631 0.00375457 0.00370699 0.00359265 0.0035586 0.00357642 0.0036387 0.00369111 0.00364017 0.00351486 0.00338506 0.0032494 0.00313641 0.00302316 0.00289756 0.00282989 0.00282868 0.00276373 0.00273723 0.00274035 0.00271413 0.00270537 0.0026567 0.00262944 0.00263246 0.00259938 0.00252279 0.00246055 0.00241973 0.00238679 0.00232603 0.00220817 0.00217499 0.00216022 0.00209913 0.00200846 0.00193752 0.00189335 0.00186348 0.00185399 0.00181972 0.00180807 0.00178472 0.00175519 0.001725 0.00172206 0.00170361 0.00168155 0.00174057 0.0018357 0.00197261
260.5075 0.00025 1.65905 0.278387 0.0923084 0.0532585 0.0407657 0.0338684 0.0291617 0.0258224 0.0226607 0.0202085 0.018745 0.017987 0.0168318 0.015587 0.0146861 0.0139541 0.0131354 0.0127607 0.0123441 0.01171 0.0110701 0.0102259 0.00965314 0.00925009 0.00868862 0.00821455 0.00763763 0.00719253 0.0069136 0.00669834 0.00646808 0.0062363 0.00616677 0.00604194 0.00593091 0.00587933 0.005785 0.00590498 0.00569538 0.00555058 0.00552749 0.00526943 0.00498798 0.00471864 0.00440717 0.0041515 0.00404107 0.00400744 0.00394129 0.0038482 0.00375018 0.00370313 0.00358974 0.00355439 0.00357692 0.00364133 0.00368531 0.00363312 0.00351171 0.00338326 0.00324269 0.00313295 0.00302304 0.00289551 0.00282662 0.00282609 0.00276404 0.00273824 0.00273624 0.00271093 0.00270577 0.00266042 0.00263328 0.00263114 0.00259507 0.00252063 0.00246171 0.00241985 0.00238717 0.00232769 0.00220879 0.00217484 0.00215921 0.00209697 0.00200599 0.00193614 0.00189266 0.00186095 0.00185047 0.00181672 0.00180594 0.00178254 0.00175213 0.00172323 0.00172155 0.00170171 0.00168049 0.0017393 0.00183394 0.00197154
260.51 0.00025 1.65878 0.277923 0.0924609 0.05329 0.0407289 0.0339003 0.0292048 0.0258559 0.0226665 0.0201798 0.0187075 0.017952 0.0168344 0.0155942 0.0146825 0.0139433 0.0131349 0.0127511 0.0123253 0.0117086 0.0110703 0.0102183 0.00964228 0.00923585 0.00868355 0.00821724 0.00764147 0.00719916 0.00691166 0.00668184 0.00645374 0.00623382 0.00616638 0.00604084 0.00592276 0.00586651 0.00577493 0.00590098 0.00568789 0.00553535 0.00553043 0.00528042 0.0049955 0.00472221 0.00441088 0.00415563 0.00404831 0.00401216 0.00393701 0.0038408 0.00374439 0.0036987 0.00358583 0.00355195 0.00357798 0.00364487 0.00367946 0.00362459 0.00351134 0.00338151 0.00323703 0.00312938 0.00302272 0.00289392 0.002824 0.00282354 0.00276315 0.00273919 0.00273294 0.00270802 0.00270486 0.00266316 0.00263774 0.00263044 0.00259149 0.00251907 0.00246269 0.00241994 0.00238726 0.00232952 0.00221 0.0021744 0.00215781 0.00209485 0.00200324 0.00193485 0.00189155 0.00185862 0.00184706 0.00181356 0.00180359 0.00178046 0.00174945 0.00172149 0.00172085 0.00170036 0.00167924 0.00173796 0.00183302 0.00196948
260.5125 0.00025 1.65852 0.278171 0.0924734 0.0532881 0.0406807 0.0339099 0.0292562 0.0258972 0.022662 0.0201486 0.0186705 0.0179192 0.0168464 0.0156015 0.0146865 0.0139294 0.0131288 0.0127429 0.012305 0.0117105 0.0110631 0.0102071 0.00963127 0.00922104 0.00867879 0.00821797 0.00764807 0.00720651 0.00690962 0.00666359 0.00643803 0.00623041 0.00616827 0.00604164 0.00591452 0.00585408 0.00576608 0.00589245 0.00568 0.00552393 0.00553023 0.00529034 0.00500359 0.0047254 0.00441423 0.00415977 0.00405512 0.0040158 0.00393345 0.00383364 0.00373933 0.00369398 0.00358231 0.00354807 0.0035787 0.00364685 0.00367211 0.00361687 0.00351 0.00337954 0.0032315 0.00312504 0.00302199 0.0028927 0.00282076 0.00281973 0.00276239 0.0027404 0.00273067 0.00270433 0.00270305 0.00266541 0.00264227 0.00263115 0.00258849 0.0025174 0.00246343 0.00242013 0.00238709 0.00233066 0.00221143 0.00217433 0.00215616 0.00209356 0.00200061 0.00193344 0.00189075 0.00185629 0.00184349 0.00181048 0.00180145 0.00177825 0.00174653 0.00172001 0.00171978 0.00169844 0.00167817 0.0017369 0.00183253 0.00196733
260.515 0.00025 1.65828 0.277939 0.0924673 0.0533195 0.0406252 0.0339226 0.0292872 0.0259221 0.022659 0.0201249 0.0186333 0.0178872 0.0168632 0.0156108 0.0146742 0.0139172 0.013131 0.0127322 0.0122853 0.0117087 0.0110553 0.0101983 0.00962052 0.0092059 0.00867546 0.00821901 0.00765399 0.00721547 0.00690876 0.00664418 0.00642109 0.00622702 0.00616892 0.00604146 0.0059057 0.0058452 0.00575635 0.00588606 0.00566993 0.00551089 0.00552966 0.00529903 0.00501115 0.00472985 0.00441662 0.00416471 0.00406213 0.00401977 0.00393033 0.00382752 0.00373342 0.00368815 0.00357977 0.00354496 0.00357943 0.00364945 0.00366462 0.00360838 0.00350742 0.00337725 0.0032264 0.00312067 0.00302062 0.00289203 0.00281794 0.00281602 0.00276172 0.0027409 0.00272793 0.00270108 0.00270032 0.00266634 0.00264656 0.00263215 0.00258579 0.00251538 0.00246427 0.00242051 0.00238685 0.00233217 0.00221286 0.00217408 0.00215486 0.0020916 0.00199844 0.00193293 0.00188993 0.00185429 0.00183985 0.00180742 0.00179906 0.00177577 0.00174379 0.00171818 0.00171827 0.00169665 0.00167728 0.0017354 0.00183174 0.00196509
260.5175 0.00025 1.65804 0.27776 0.0924414 0.0533374 0.0405796 0.0339402 0.0293183 0.0259492 0.0226654 0.0201098 0.0186056 0.0178433 0.0168678 0.0156313 0.0146675 0.0139069 0.0131345 0.0127258 0.0122659 0.0117053 0.0110485 0.0101891 0.00960977 0.00919147 0.00867014 0.00821806 0.00765666 0.00722294 0.00690973 0.0066251 0.00640593 0.00622551 0.00617082 0.00604165 0.00589906 0.00583626 0.00574668 0.00587855 0.00566275 0.00550096 0.0055259 0.00530445 0.0050188 0.00473415 0.00442072 0.00416915 0.00406963 0.00402449 0.00392722 0.00382145 0.00372929 0.0036823 0.00357709 0.0035415 0.00358048 0.00365071 0.00365815 0.00360021 0.00350543 0.00337555 0.00322202 0.00311691 0.00301829 0.00289175 0.00281568 0.00281241 0.00276012 0.00274174 0.00272639 0.00269812 0.00269841 0.00266613 0.00265044 0.00263438 0.00258475 0.00251383 0.00246525 0.00242118 0.00238615 0.00233345 0.00221436 0.00217399 0.00215315 0.00208951 0.00199646 0.00193193 0.00188898 0.00185229 0.00183633 0.00180429 0.00179677 0.00177336 0.00174183 0.00171637 0.00171678 0.00169495 0.00167682 0.00173449 0.00183034 0.0019638
260.52 0.00025 1.6578 0.277584 0.092447 0.053336 0.0405356 0.0339534 0.029342 0.0259557 0.0226584 0.0200962 0.0185682 0.0178035 0.0168709 0.0156437 0.0146573 0.0138951 0.0131386 0.0127219 0.012252 0.0117024 0.0110395 0.0101786 0.00960173 0.00918005 0.00866577 0.00821237 0.00765954 0.00723096 0.00690832 0.00660656 0.00638944 0.00622136 0.00617321 0.00604079 0.00589148 0.00582734 0.00573454 0.00586912 0.00565402 0.00549008 0.00552133 0.00530794 0.00502707 0.00473893 0.00442462 0.00417478 0.00407829 0.00402956 0.0039248 0.0038162 0.0037236 0.00367637 0.003574 0.00353814 0.00358294 0.00365212 0.00365169 0.00359125 0.00350289 0.00337353 0.00321791 0.0031131 0.00301471 0.00289178 0.00281394 0.00280866 0.00275801 0.00274271 0.00272507 0.00269572 0.00269544 0.00266478 0.00265409 0.00263605 0.00258419 0.00251241 0.00246576 0.00242226 0.00238539 0.00233453 0.00221614 0.00217395 0.00215113 0.00208768 0.00199406 0.00193074 0.0018886 0.00185016 0.00183274 0.00180133 0.00179446 0.0017709 0.00173949 0.00171473 0.00171498 0.00169317 0.00167599 0.00173323 0.00182884 0.00196176
260.5225 0.00025 1.65757 0.277504 0.0924335 0.0533322 0.0405106 0.0339394 0.0293575 0.0259744 0.0226658 0.0200889 0.0185428 0.0177642 0.0168717 0.015661 0.0146505 0.0138869 0.0131439 0.0127168 0.0122386 0.011698 0.0110273 0.0101715 0.00959421 0.00916951 0.00865715 0.00820595 0.00766243 0.00724017 0.00690787 0.00658468 0.00637381 0.00621617 0.00617452 0.00603962 0.00588419 0.00582112 0.00572417 0.00586072 0.00564765 0.00548131 0.00551552 0.0053084 0.00503313 0.00474476 0.00442885 0.00418046 0.00408687 0.00403426 0.00392173 0.00381098 0.00371873 0.00366871 0.00357113 0.00353531 0.00358453 0.00365283 0.00364415 0.00358336 0.00350061 0.00337296 0.00321412 0.00310911 0.00301132 0.00289199 0.00281211 0.00280515 0.00275718 0.00274421 0.00272353 0.00269244 0.00269199 0.00266257 0.00265666 0.00263837 0.0025844 0.00251117 0.00246728 0.00242262 0.00238443 0.00233515 0.00221799 0.00217405 0.00214909 0.00208568 0.00199193 0.00192948 0.00188783 0.00184778 0.00182914 0.00179861 0.00179213 0.00176833 0.00173736 0.00171298 0.0017128 0.00169179 0.00167555 0.00173195 0.001828 0.00195992
260.525 0.00025 1.65734 0.277193 0.0924407 0.053307 0.0404721 0.0339638 0.0293729 0.0259799 0.0226685 0.020092 0.0185294 0.0177328 0.0168626 0.0156812 0.0146444 0.0138789 0.0131526 0.0127164 0.012222 0.0116895 0.0110141 0.0101635 0.00958748 0.00916138 0.00864998 0.00819806 0.00766386 0.00724711 0.00690766 0.006564 0.0063596 0.00621127 0.00617648 0.0060393 0.00587865 0.00581356 0.00571317 0.00584888 0.00563958 0.00547321 0.00550923 0.00530803 0.00503661 0.00475117 0.00443291 0.00418697 0.00409596 0.00403962 0.00391971 0.00380585 0.00371375 0.00366216 0.00356836 0.00353359 0.00358567 0.00365324 0.0036358 0.00357472 0.00349672 0.00337079 0.00321053 0.00310469 0.00300697 0.00289262 0.00281035 0.00280138 0.00275451 0.00274443 0.00272279 0.00268975 0.00268948 0.00265968 0.00265836 0.00264119 0.00258547 0.00251087 0.00246866 0.00242307 0.00238377 0.00233568 0.00221979 0.00217424 0.00214684 0.00208376 0.00199002 0.00192837 0.00188691 0.00184555 0.00182554 0.00179623 0.00179009 0.00176613 0.00173557 0.00171131 0.00171027 0.00168993 0.00167464 0.00173076 0.00182676 0.00195823
260.5275 0.00025 1.65711 0.27687 0.0923911 0.0533094 0.0404665 0.0339635 0.0293905 0.0259949 0.022667 0.0200887 0.0185065 0.0176959 0.0168521 0.0157052 0.0146394 0.0138697 0.0131635 0.0127179 0.0122083 0.0116806 0.0109973 0.0101565 0.00958312 0.00915146 0.00864676 0.00819128 0.00766561 0.00725699 0.0069089 0.00654285 0.00634461 0.00620645 0.0061766 0.00603905 0.00587147 0.00580738 0.00570641 0.00583635 0.00563167 0.00546766 0.00550435 0.00530456 0.00503753 0.00475743 0.00443908 0.00419257 0.0041045 0.0040457 0.00391743 0.00380272 0.00370674 0.00365412 0.00356569 0.00353163 0.00358716 0.00365211 0.0036274 0.00356645 0.00349237 0.00336998 0.00320798 0.00310175 0.00300231 0.0028929 0.00280932 0.00279786 0.0027518 0.00274464 0.00272117 0.00268666 0.00268673 0.00265707 0.00265909 0.00264338 0.00258725 0.00251069 0.00247024 0.00242338 0.00238278 0.00233622 0.00222186 0.00217461 0.00214465 0.00208212 0.00198808 0.00192696 0.00188607 0.00184337 0.00182184 0.00179375 0.0017878 0.00176334 0.00173397 0.00170977 0.00170749 0.00168794 0.00167471 0.00172961 0.00182569 0.00195631
260.53 0.00025 1.65688 0.276742 0.0923631 0.0532671 0.0404548 0.0339573 0.0293949 0.0259879 0.0226565 0.0200879 0.018503 0.0176663 0.0168439 0.0157272 0.0146319 0.0138665 0.0131776 0.0127161 0.0121986 0.0116712 0.010978 0.0101485 0.00957568 0.00914509 0.00864482 0.00817895 0.00766542 0.00726454 0.00690741 0.00652284 0.00633216 0.00619852 0.00617562 0.00603654 0.00586637 0.00580111 0.00569869 0.00582123 0.00562456 0.00546502 0.00550032 0.00530095 0.00503589 0.00476471 0.0044453 0.00419867 0.00411529 0.00405106 0.00391481 0.00379838 0.00370115 0.00364647 0.00356324 0.00353139 0.00358776 0.00365061 0.0036204 0.00355857 0.00348893 0.00336852 0.0032061 0.00309826 0.00299763 0.00289303 0.00280816 0.00279414 0.00274857 0.00274412 0.00271983 0.00268464 0.00268313 0.00265378 0.00265861 0.0026454 0.00258909 0.00251174 0.0024715 0.00242363 0.00238161 0.00233652 0.00222427 0.00217501 0.00214234 0.00208062 0.00198627 0.00192567 0.00188501 0.00184132 0.0018182 0.00179128 0.00178543 0.00176093 0.00173227 0.00170799 0.00170432 0.00168631 0.00167436 0.00172938 0.0018252 0.00195459
260.5325 0.00025 1.65665 0.276777 0.0923505 0.0532563 0.0404268 0.0339532 0.0294068 0.025974 0.0226459 0.0200896 0.0184871 0.0176432 0.0168283 0.0157478 0.0146313 0.0138583 0.0131902 0.0127176 0.0121845 0.0116585 0.0109622 0.0101417 0.0095689 0.00913716 0.00863838 0.00816607 0.00766503 0.00727033 0.00690801 0.00650361 0.00631884 0.00619043 0.00617392 0.00603523 0.00586113 0.00579588 0.0056909 0.00580513 0.0056187 0.00546337 0.00549651 0.00529559 0.005032 0.00477065 0.00445173 0.00420542 0.00412397 0.0040562 0.00391362 0.00379468 0.00369645 0.00363925 0.00356054 0.00353165 0.00359165 0.00364836 0.0036126 0.00355059 0.00348476 0.00336704 0.00320349 0.00309522 0.00299292 0.00289364 0.00280729 0.00279099 0.00274631 0.00274378 0.00271854 0.00268245 0.0026802 0.00265061 0.00265687 0.00264675 0.0025917 0.00251334 0.00247365 0.00242428 0.00238101 0.00233657 0.00222651 0.00217547 0.00214025 0.00207915 0.00198479 0.00192417 0.00188444 0.00183967 0.00181491 0.00178904 0.00178298 0.00175855 0.00173083 0.00170622 0.00170142 0.00168466 0.00167386 0.00172857 0.001824 0.00195257
260.535 0.00025 1.65642 0.276627 0.0923459 0.0531551 0.0404176 0.0339418 0.0294087 0.0259621 0.0226409 0.0201016 0.0184792 0.017618 0.0168104 0.0157622 0.0146305 0.0138444 0.0132007 0.0127208 0.0121796 0.0116471 0.0109441 0.0101363 0.00956312 0.00912789 0.00863659 0.00815463 0.00766415 0.00727655 0.00690577 0.00648605 0.00630948 0.00618441 0.00616957 0.0060337 0.00585785 0.00579349 0.00568366 0.00579029 0.0056091 0.00546244 0.00549171 0.00529101 0.00502667 0.0047757 0.00445975 0.00421312 0.00413331 0.00406134 0.00391401 0.00379085 0.00369023 0.00363168 0.00355691 0.00353075 0.00359314 0.00364503 0.00360427 0.00354276 0.00347981 0.00336648 0.00320135 0.00309239 0.00298768 0.00289345 0.00280709 0.00278689 0.00274365 0.00274247 0.00271784 0.00268021 0.00267761 0.0026477 0.0026546 0.00264733 0.00259481 0.00251655 0.00247557 0.00242538 0.00237986 0.00233683 0.00222838 0.00217597 0.00213785 0.00207763 0.00198321 0.00192271 0.00188356 0.00183817 0.00181166 0.00178705 0.00178056 0.00175605 0.00172983 0.00170457 0.00169779 0.00168258 0.00167341 0.00172765 0.0018227 0.00195102
260.5375 0.00025 1.65619 0.276584 0.092355 0.0530956 0.040415 0.0339262 0.0293916 0.0259233 0.0226452 0.0201188 0.0184643 0.0175975 0.0167994 0.0157723 0.01463 0.0138395 0.0132111 0.0127237 0.0121759 0.0116322 0.0109254 0.0101332 0.00956083 0.00911828 0.00863562 0.00814542 0.00765822 0.00727984 0.00690662 0.00646849 0.00629912 0.00617633 0.00616504 0.00603183 0.00585362 0.00579026 0.00567784 0.00577318 0.00560106 0.00546367 0.00548686 0.00528467 0.00502105 0.00477898 0.00446764 0.0042215 0.00414394 0.00406724 0.00391268 0.00378807 0.00368552 0.00362577 0.00355417 0.0035307 0.00359473 0.00364105 0.00359586 0.00353559 0.00347381 0.00336485 0.00319914 0.00308966 0.0029828 0.00289343 0.00280672 0.00278389 0.00274064 0.00274146 0.00271703 0.00267757 0.00267452 0.00264598 0.00265168 0.00264599 0.00259734 0.00252035 0.00247874 0.00242581 0.00237946 0.00233619 0.00223057 0.00217674 0.0021356 0.00207633 0.00198212 0.00192117 0.00188227 0.00183621 0.00180856 0.00178474 0.00177828 0.00175321 0.00172868 0.00170298 0.00169383 0.00168072 0.00167303 0.0017269 0.00182242 0.00194909
260.54 0.00025 1.65595 0.276605 0.092299 0.0530044 0.0403887 0.0338944 0.0293635 0.0258917 0.0226372 0.0201363 0.0184514 0.0175788 0.016788 0.0157778 0.0146402 0.0138351 0.0132232 0.0127241 0.0121684 0.0116166 0.0109026 0.0101289 0.00955651 0.00911342 0.00863642 0.00813296 0.00764784 0.0072826 0.00690519 0.00645367 0.0062893 0.00616539 0.00615897 0.00602763 0.00585065 0.00578522 0.00567391 0.00575547 0.00559155 0.00546811 0.00548266 0.00527941 0.00501278 0.00478194 0.00447496 0.0042292 0.00415247 0.00407193 0.00391264 0.00378473 0.00368104 0.00361901 0.00355092 0.00352975 0.00359563 0.0036366 0.00358836 0.00352878 0.00346869 0.00336292 0.00319761 0.0030868 0.00297797 0.0028929 0.00280655 0.00278011 0.00273784 0.00273936 0.00271606 0.00267572 0.00267171 0.00264418 0.00264832 0.00264363 0.00259995 0.00252429 0.00248187 0.00242654 0.0023788 0.00233614 0.00223221 0.00217767 0.00213338 0.00207501 0.00198127 0.00191983 0.00188129 0.00183436 0.00180532 0.00178231 0.00177581 0.00175076 0.00172804 0.0017011 0.00168991 0.00167873 0.00167219 0.00172631 0.00182226 0.0019473
260.5425 0.00025 1.6557 0.27632 0.0922546 0.0529288 0.0404012 0.0338558 0.0293334 0.0258632 0.022636 0.0201562 0.0184475 0.0175647 0.0167711 0.0157741 0.0146401 0.0138305 0.0132342 0.0127272 0.0121621 0.011603 0.0108839 0.0101234 0.0095511 0.00910824 0.00863572 0.00812318 0.00763851 0.00728334 0.00690243 0.00644083 0.00628086 0.00615557 0.00614997 0.00602485 0.00584759 0.00578205 0.00567029 0.00573882 0.00558095 0.00547418 0.00547818 0.00527497 0.00500425 0.00478374 0.00448165 0.00423903 0.00416219 0.00407739 0.0039125 0.00378259 0.00367569 0.0036123 0.00354749 0.00352949 0.00359619 0.00363231 0.00357977 0.00352238 0.00346287 0.00336301 0.00319582 0.00308398 0.00297334 0.00289251 0.00280648 0.0027771 0.00273569 0.00273783 0.00271461 0.00267409 0.00266906 0.00264346 0.00264482 0.00263976 0.00260194 0.00252882 0.00248656 0.00242735 0.00237813 0.00233557 0.00223391 0.00217855 0.00213121 0.00207404 0.00198055 0.00191859 0.00187967 0.00183256 0.0018026 0.00178015 0.00177328 0.00174792 0.00172712 0.00169939 0.00168572 0.00167637 0.00167198 0.00172547 0.00182105 0.00194609
260.545 0.00025 1.65544 0.276188 0.0921933 0.0528353 0.0403832 0.0338404 0.0292934 0.0258255 0.0226285 0.0201809 0.0184425 0.0175507 0.0167544 0.0157723 0.0146457 0.0138258 0.0132452 0.0127312 0.0121548 0.0115887 0.0108612 0.0101208 0.00954894 0.00910261 0.00863784 0.00811131 0.00762862 0.00728267 0.00690015 0.00642896 0.00627241 0.00614512 0.00614001 0.00602107 0.00584479 0.00577801 0.00566839 0.00572451 0.00557023 0.00547935 0.00547523 0.00527112 0.00499568 0.00478419 0.00448831 0.00424812 0.00417211 0.00408164 0.00391352 0.00378239 0.00367088 0.00360644 0.00354485 0.00352861 0.00359837 0.00362638 0.00357122 0.0035156 0.00345716 0.00336153 0.00319453 0.00308144 0.00296915 0.00289279 0.00280727 0.00277377 0.00273353 0.00273558 0.00271346 0.00267255 0.00266546 0.00264189 0.00264178 0.0026354 0.00260329 0.00253374 0.00249151 0.00242877 0.00237793 0.00233452 0.00223534 0.00217972 0.00212902 0.00207327 0.00197995 0.00191698 0.00187831 0.00183062 0.00180004 0.00177776 0.00177071 0.00174551 0.00172628 0.00169738 0.00168133 0.00167428 0.00167124 0.00172484 0.00181965 0.0019442
260.5475 0.00025 1.65518 0.275922 0.0920368 0.0527389 0.0403838 0.0337953 0.029241 0.0257757 0.0226225 0.0201959 0.0184542 0.0175379 0.0167454 0.0157649 0.0146472 0.0138218 0.0132582 0.0127331 0.0121479 0.0115751 0.0108407 0.0101145 0.00954234 0.00909452 0.00863844 0.0080993 0.00761634 0.00728115 0.00689741 0.00641956 0.00626562 0.00613755 0.00612961 0.00601601 0.00584115 0.00577464 0.00566628 0.00571008 0.00555952 0.00548589 0.00547208 0.00526673 0.00498835 0.00478413 0.00449406 0.00425764 0.00418158 0.0040852 0.00391547 0.00377973 0.00366725 0.0036018 0.00354152 0.00352726 0.00359729 0.00362093 0.00356327 0.00350892 0.00345006 0.00336054 0.00319358 0.00307847 0.00296455 0.00289212 0.00280753 0.00277082 0.0027318 0.00273456 0.00271236 0.00267107 0.00266091 0.00264178 0.00263914 0.00263 0.00260295 0.00253836 0.00249732 0.00243076 0.00237745 0.00233342 0.00223645 0.00218081 0.00212717 0.00207212 0.00197979 0.00191542 0.00187663 0.00182887 0.00179772 0.00177591 0.00176847 0.00174281 0.00172565 0.001696 0.00167688 0.001672 0.00167082 0.00172437 0.00181969 0.00194279
260.55 0.00025 1.65491 0.275789 0.0919468 0.0526233 0.0403864 0.0337565 0.0291917 0.0257329 0.0226036 0.0202058 0.0184543 0.0175292 0.0167321 0.015752 0.0146486 0.0138195 0.0132654 0.0127361 0.0121395 0.011565 0.0108206 0.0101103 0.00953592 0.00908561 0.0086437 0.00808987 0.00760456 0.00727643 0.00689373 0.00641227 0.00626004 0.00612805 0.00611805 0.00600934 0.00583781 0.0057703 0.00566518 0.0056956 0.00554792 0.00549259 0.00547101 0.00526246 0.00497887 0.00478393 0.00449829 0.00426611 0.00419029 0.00408944 0.00391721 0.00377757 0.00366393 0.00359771 0.00353903 0.00352693 0.00359686 0.00361518 0.00355525 0.00350305 0.00344248 0.00335914 0.00319266 0.00307587 0.00296018 0.00289124 0.00280828 0.00276791 0.00272999 0.00273217 0.00271142 0.00266996 0.00265711 0.0026413 0.00263794 0.00262335 0.00260168 0.00254353 0.00250403 0.00243345 0.00237694 0.00233215 0.00223742 0.00218208 0.00212527 0.00207134 0.00197966 0.00191395 0.00187506 0.00182692 0.0017956 0.00177386 0.0017658 0.00174068 0.00172505 0.00169397 0.00167239 0.00166962 0.00167004 0.00172403 0.00181908 0.00194138
260.5525 0.00025 1.65465 0.275759 0.0918781 0.0525278 0.0403611 0.0337317 0.0291194 0.0257021 0.0225865 0.0202373 0.0184553 0.0175212 0.0167146 0.0157357 0.0146455 0.0138156 0.0132769 0.0127332 0.0121286 0.0115547 0.0108005 0.010104 0.00953366 0.00907532 0.00864561 0.0080789 0.00759383 0.00727018 0.00689114 0.00640575 0.00625514 0.00611876 0.0061051 0.00600145 0.00583166 0.00576717 0.00566354 0.00568284 0.0055391 0.00549808 0.00546853 0.0052596 0.0049712 0.00478274 0.00450267 0.00427227 0.00419907 0.00409361 0.00391933 0.00377643 0.00366136 0.0035939 0.0035359 0.00352631 0.00359531 0.00360878 0.00354725 0.00349734 0.00343393 0.00335676 0.00319188 0.0030739 0.00295586 0.00289019 0.00280862 0.0027658 0.00272802 0.00272995 0.00270991 0.00266876 0.00265299 0.00264036 0.00263682 0.00261748 0.00259874 0.00254788 0.00251123 0.00243714 0.00237675 0.00233095 0.00223813 0.00218373 0.00212339 0.00207091 0.00197967 0.00191252 0.00187315 0.00182488 0.00179433 0.00177182 0.0017632 0.00173838 0.00172465 0.00169184 0.00166781 0.00166727 0.0016696 0.00172377 0.00181799 0.00194027
260.555 0.00025 1.65438 0.275444 0.0917369 0.0524464 0.0403583 0.0336971 0.0290601 0.0256735 0.0225722 0.0202458 0.0184637 0.0175133 0.0167059 0.0157187 0.0146393 0.0138154 0.0132871 0.0127307 0.0121203 0.0115438 0.010783 0.0101025 0.00952379 0.00906733 0.00864705 0.00807079 0.00758283 0.00726486 0.00688409 0.00640086 0.00625362 0.00611117 0.00609372 0.00599573 0.00582751 0.0057643 0.00566363 0.0056698 0.00552775 0.00550238 0.00546586 0.00525682 0.00496378 0.00478179 0.00450735 0.00427745 0.00420758 0.00409718 0.00392255 0.00377483 0.00365851 0.00359103 0.00353457 0.00352446 0.00359343 0.00360253 0.00353931 0.00349153 0.00342687 0.00335509 0.00319096 0.0030713 0.00295198 0.00288893 0.00280898 0.0027629 0.00272617 0.00272771 0.00270829 0.00266814 0.00264884 0.00263894 0.00263596 0.00261124 0.00259548 0.00255139 0.00251851 0.00244148 0.00237726 0.00232898 0.00223847 0.00218539 0.00212185 0.00207038 0.00197961 0.00191105 0.00187083 0.00182283 0.00179199 0.00176991 0.00176047 0.00173596 0.00172458 0.00168976 0.00166333 0.00166466 0.00166903 0.0017233 0.00181697 0.00193864
260.5575 0.00025 1.65411 0.275337 0.0916289 0.0523472 0.0403412 0.033679 0.0289977 0.0256322 0.0225578 0.0202597 0.0184729 0.01751 0.0166971 0.0156998 0.0146382 0.0138181 0.0132976 0.0127284 0.0121149 0.0115349 0.0107658 0.0100971 0.00951534 0.00905957 0.00865006 0.00806369 0.00756975 0.00725584 0.00687705 0.00639783 0.00624981 0.0061064 0.00608153 0.00598628 0.0058225 0.00576175 0.0056642 0.00565886 0.00551593 0.00550941 0.00546303 0.00525329 0.0049584 0.00478128 0.00451173 0.00428135 0.00421379 0.00410009 0.00392569 0.00377461 0.00365615 0.00358827 0.00353197 0.00352273 0.00359038 0.00359601 0.00353128 0.00348608 0.00341903 0.00335275 0.00319004 0.00306871 0.00294833 0.00288766 0.00280905 0.00276107 0.00272431 0.00272551 0.00270661 0.00266771 0.002645 0.00263786 0.00263557 0.00260536 0.00259055 0.00255362 0.00252604 0.00244634 0.00237923 0.00232721 0.0022385 0.00218676 0.0021208 0.0020698 0.00198008 0.00190978 0.00186829 0.00182077 0.00179004 0.00176839 0.00175767 0.00173391 0.00172439 0.00168756 0.00165881 0.00166225 0.00166827 0.00172283 0.0018172 0.00193722
260.56 0.00025 1.65385 0.275419 0.0915405 0.0522403 0.0403113 0.0336574 0.0289419 0.0255877 0.0225409 0.0202663 0.0184799 0.0175106 0.0166935 0.0156821 0.0146346 0.0138221 0.013301 0.0127247 0.0121062 0.0115294 0.010749 0.0100909 0.00950774 0.00905194 0.00865152 0.00805929 0.0075573 0.00724661 0.00686847 0.00639502 0.00624767 0.00609803 0.006071 0.00597633 0.00581384 0.00575862 0.00566672 0.00564686 0.00550569 0.00551393 0.00545977 0.00525073 0.00495347 0.00478081 0.0045158 0.00428623 0.0042194 0.00410307 0.00392944 0.00377427 0.00365496 0.00358559 0.00352958 0.0035223 0.00358869 0.0035886 0.00352414 0.00348001 0.00341007 0.00335042 0.00318909 0.00306693 0.0029446 0.00288646 0.00280962 0.00275869 0.0027225 0.00272269 0.0027045 0.00266713 0.0026418 0.00263658 0.00263563 0.00260033 0.00258446 0.00255466 0.00253269 0.00245255 0.00238098 0.00232545 0.00223855 0.00218818 0.00211979 0.00206882 0.00198029 0.00190897 0.00186587 0.0018183 0.00178805 0.0017666 0.00175486 0.00173145 0.00172438 0.00168531 0.00165443 0.00165948 0.00166743 0.00172255 0.00181703 0.00193632
260.5625 0.00025 1.6536 0.275719 0.0914824 0.0521403 0.040299 0.0336242 0.0288731 0.0255524 0.0225222 0.0202749 0.0184976 0.0174988 0.0166861 0.0156605 0.0146324 0.0138196 0.013303 0.0127169 0.0120992 0.0115241 0.0107342 0.0100845 0.00950112 0.009046 0.00865455 0.00805089 0.00754365 0.0072375 0.00685907 0.00639516 0.00624536 0.00609177 0.0060605 0.00596646 0.00580588 0.00575507 0.00567063 0.00563755 0.00549751 0.00551726 0.00545632 0.00524881 0.00494778 0.00478106 0.00452125 0.0042901 0.00422193 0.00410468 0.00393401 0.00377503 0.00365502 0.00358414 0.00352828 0.00352006 0.00358505 0.00358092 0.00351736 0.0034745 0.00340157 0.00334623 0.00318827 0.00306601 0.0029411 0.0028849 0.00281009 0.00275645 0.00272061 0.00271953 0.00270285 0.00266688 0.00263825 0.00263466 0.00263541 0.00259636 0.00257873 0.00255482 0.00253889 0.00245902 0.00238351 0.00232426 0.00223832 0.0021901 0.00211923 0.00206794 0.00198056 0.00190806 0.00186345 0.00181557 0.00178602 0.0017649 0.00175174 0.00172933 0.00172417 0.00168329 0.00165027 0.00165726 0.00166638 0.00172232 0.00181661 0.00193474
260.565 0.00025 1.65336 0.275543 0.091359 0.0519706 0.0402566 0.033599 0.0288134 0.0255163 0.0224964 0.0202891 0.018501 0.0174967 0.0166764 0.0156433 0.014629 0.0138204 0.0132973 0.0127131 0.0120893 0.0115164 0.010726 0.0100786 0.00949201 0.00904145 0.00865081 0.00804392 0.00753243 0.00722863 0.00684779 0.00639467 0.00624539 0.00608525 0.00605058 0.00595594 0.00579494 0.00575049 0.00567415 0.00562871 0.00548944 0.00552003 0.00545313 0.00524566 0.00494406 0.00478113 0.00452703 0.00429439 0.00422242 0.00410638 0.00394102 0.00377462 0.00365463 0.00358467 0.00352727 0.00351872 0.00358042 0.00357389 0.00351181 0.00346826 0.00339379 0.00334344 0.00318718 0.00306419 0.00293796 0.00288293 0.00281042 0.00275476 0.00271883 0.0027158 0.00270116 0.00266624 0.00263592 0.00263221 0.00263535 0.00259319 0.00257244 0.00255291 0.0025443 0.00246651 0.00238704 0.00232301 0.00223797 0.00219141 0.00211907 0.0020671 0.00198094 0.00190699 0.00186087 0.00181264 0.00178472 0.00176348 0.00174885 0.00172733 0.00172393 0.00168106 0.0016461 0.00165453 0.00166498 0.00172293 0.00181609 0.00193361
260.5675 0.00025 1.65312 0.275633 0.0911747 0.05185 0.0402184 0.0335686 0.0287728 0.0254674 0.0224674 0.0202907 0.0185143 0.0174978 0.0166643 0.0156279 0.014628 0.0138173 0.0132927 0.0127021 0.0120828 0.0115134 0.0107146 0.0100685 0.00948208 0.00903834 0.00864766 0.008038 0.00751996 0.00721659 0.00683586 0.00639502 0.00624542 0.00607917 0.0060424 0.00594593 0.00578284 0.00574616 0.00567787 0.00562263 0.00548132 0.00552344 0.00544859 0.00524313 0.00494045 0.00478069 0.00453118 0.00430015 0.00422147 0.0041054 0.00394597 0.00377617 0.00365495 0.00358448 0.00352646 0.00351699 0.00357549 0.00356622 0.00350439 0.0034632 0.00338605 0.00334006 0.00318674 0.003063 0.00293566 0.00288188 0.0028105 0.00275293 0.00271691 0.00271386 0.00269842 0.00266598 0.00263376 0.00263033 0.0026352 0.00259103 0.00256737 0.00255065 0.00254864 0.00247441 0.00239145 0.00232153 0.0022381 0.00219262 0.00211924 0.00206641 0.00198161 0.00190593 0.0018584 0.00180982 0.00178246 0.00176218 0.00174585 0.00172544 0.00172389 0.00167878 0.00164235 0.001652 0.00166375 0.0017228 0.00181585 0.00193202