260.5025 0.00025 0.0766797 0.0334574 0.0282308 -0.0487362 -0.115207 -0.0880835 -0.167527 -0.267965 -0.300508 -0.27035 -0.287226 -0.227949 -0.251561 -0.17515 -0.0989231 -0.116196 -0.123669 -0.173372 -0.106122 0.065016 0.125447 0.130323 0.137117 0.0846908 0.035985 -0.0308755 -0.0365924 -0.00497952 0.000229688 1.49597e-05 -0.0347015 -0.06537 -0.123022 -0.216754 -0.1697 -0.0818568 -0.0298412 -0.0865963 -0.0953256 -0.109278 -0.184918 -0.155832 -0.173531 -0.227953 -0.313162 -0.415396 -0.411216 -0.27491 -0.0925115 -0.0495159 -0.0712689 -0.135396 -0.199914 -0.305644 -0.351914 -0.295131 -0.232226 -0.236662 -0.268394 -0.26687 -0.190428 -0.121638 -0.105777 -0.0796484 -0.0929071 -0.114907 -0.171138 -0.210349 -0.258218 -0.235988 -0.134773 -0.0847148 -0.103807 -0.175556 -0.22197 -0.325683 -0.382136 -0.320252 -0.258764 -0.282452 -0.375926 -0.423634 -0.408318 -0.332552 -0.240007 -0.208005 -0.180739 -0.137744 -0.094117 -0.156117 -0.276774 -0.348273 -0.39867 -0.428267 -0.473708 -0.474148 -0.388616 -0.241452 -0.196053 -0.0379293
260.505 0.00025 0.0747901 0.0285463 0.0332 -0.0362293 -0.105914 -0.0827021 -0.161631 -0.270414 -0.304468 -0.271822 -0.292028 -0.22677 -0.252959 -0.185636 -0.095734 -0.1047 -0.123299 -0.184073 -0.114794 0.0596124 0.125543 0.128704 0.137718 0.0911552 0.0426974 -0.0274006 -0.0319888 0.000856812 0.00530116 -0.000278038 -0.0359102 -0.0629692 -0.119208 -0.213911 -0.172913 -0.0860252 -0.0317201 -0.0904963 -0.100677 -0.108741 -0.184504 -0.15776 -0.175786 -0.229844 -0.31845 -0.420309 -0.414031 -0.272706 -0.0907761 -0.0523014 -0.0744034 -0.13931 -0.203193 -0.31013 -0.355298 -0.292868 -0.228017 -0.232085 -0.258942 -0.262274 -0.190545 -0.124427 -0.108346 -0.0801307 -0.0902288 -0.11374 -0.173242 -0.210033 -0.256002 -0.235035 -0.139781 -0.0897418 -0.104455 -0.177611 -0.227102 -0.331923 -0.386581 -0.317515 -0.251992 -0.276197 -0.371889 -0.420881 -0.41044 -0.333273 -0.237577 -0.205908 -0.175028 -0.127611 -0.088745 -0.159895 -0.283037 -0.349437 -0.399342 -0.428796 -0.473572 -0.472768 -0.388457 -0.241412 -0.194735 -0.034332
260.5075 0.00025 0.0724225 0.0231655 0.0386519 -0.0239135 -0.0960686 -0.077506 -0.156271 -0.271791 -0.307035 -0.273806 -0.294742 -0.225535 -0.25394 -0.194278 -0.0931325 -0.0925016 -0.122478 -0.194349 -0.123045 0.0540727 0.124632 0.128183 0.13838 0.097691 0.049756 -0.0242039 -0.0275783 0.00719549 0.010407 -0.000116189 -0.0375062 -0.061439 -0.115838 -0.210372 -0.175394 -0.089793 -0.0335163 -0.0936573 -0.105938 -0.108654 -0.183623 -0.159455 -0.178198 -0.232313 -0.323696 -0.42465 -0.416464 -0.270022 -0.0891002 -0.0549082 -0.0771461 -0.142968 -0.206075 -0.314235 -0.358651 -0.290573 -0.224092 -0.227357 -0.249566 -0.257238 -0.190785 -0.127565 -0.111041 -0.0808649 -0.0879254 -0.112572 -0.175536 -0.209939 -0.253588 -0.233699 -0.144817 -0.0952415 -0.105698 -0.179285 -0.231748 -0.337951 -0.390741 -0.314871 -0.24551 -0.269973 -0.367511 -0.418224 -0.412887 -0.333691 -0.234985 -0.203692 -0.169221 -0.11773 -0.083348 -0.163986 -0.289514 -0.350214 -0.399931 -0.429669 -0.473455 -0.471442 -0.388396 -0.241409 -0.193398 -0.0307774
260.51 0.00025 0.069717 0.0173816 0.0446301 -0.0116835 -0.0860909 -0.0726747 -0.151237 -0.272173 -0.308245 -0.276198 -0.295441 -0.224076 -0.254617 -0.201049 -0.0909074 -0.0799794 -0.121044 -0.203903 -0.130866 0.0484623 0.1228 0.128637 0.139206 0.104154 0.0570828 -0.0213376 -0.0233374 0.0140196 0.0154561 0.000708449 -0.0392941 -0.0606204 -0.112913 -0.206249 -0.177101 -0.0932246 -0.0353332 -0.0960282 -0.111178 -0.109073 -0.182219 -0.160971 -0.180612 -0.235507 -0.328701 -0.428369 -0.418527 -0.266834 -0.0875387 -0.0572587 -0.0795041 -0.146423 -0.208568 -0.317887 -0.361851 -0.288272 -0.220415 -0.222498 -0.240302 -0.251768 -0.19112 -0.131042 -0.113772 -0.0818569 -0.0860502 -0.111455 -0.17793 -0.210055 -0.251082 -0.232042 -0.14982 -0.101122 -0.107595 -0.180735 -0.235831 -0.343724 -0.39454 -0.312302 -0.239392 -0.263815 -0.362788 -0.415634 -0.415603 -0.333822 -0.232281 -0.201354 -0.16331 -0.108125 -0.0779773 -0.168373 -0.296177 -0.350699 -0.400412 -0.430886 -0.473325 -0.470172 -0.3884 -0.241434 -0.192051 -0.0272677
260.5125 0.00025 0.0668332 0.0112325 0.0511646 0.000875564 -0.0762922 -0.0684164 -0.146151 -0.271559 -0.308305 -0.278644 -0.294175 -0.222276 -0.255056 -0.205935 -0.0887527 -0.0675247 -0.118977 -0.212506 -0.138469 0.0427887 0.120024 0.129792 0.140277 0.11051 0.0645274 -0.0187019 -0.0192933 0.0212994 0.0203823 0.0022447 -0.0410837 -0.0603304 -0.110463 -0.201717 -0.177989 -0.0963488 -0.0370874 -0.0974482 -0.116573 -0.110121 -0.180284 -0.162368 -0.182998 -0.239574 -0.333342 -0.431496 -0.420206 -0.263226 -0.0862053 -0.0593122 -0.0815096 -0.149662 -0.210686 -0.321049 -0.364807 -0.286027 -0.216981 -0.217602 -0.231219 -0.245901 -0.191537 -0.134816 -0.116503 -0.0831134 -0.0846611 -0.110467 -0.18032 -0.210316 -0.248523 -0.230161 -0.154714 -0.107326 -0.110154 -0.18214 -0.239357 -0.349181 -0.397918 -0.309799 -0.233712 -0.257758 -0.357695 -0.413075 -0.418553 -0.333704 -0.229533 -0.198874 -0.157267 -0.0988088 -0.0726682 -0.173035 -0.302948 -0.350918 -0.400764 -0.43243 -0.473201 -0.468992 -0.388484 -0.241504 -0.190692 -0.0238193
260.515 0.00025 0.0637596 0.00483895 0.0582116 0.0139857 -0.0670349 -0.0651902 -0.140884 -0.269966 -0.307351 -0.280959 -0.291285 -0.220242 -0.255213 -0.209175 -0.0862641 -0.0555059 -0.116144 -0.219779 -0.145806 0.0371747 0.116561 0.13134 0.141629 0.116723 0.0718957 -0.0161631 -0.0154058 0.029014 0.0251594 0.00459805 -0.0427653 -0.0604352 -0.10852 -0.196943 -0.178007 -0.0992037 -0.0387068 -0.0979202 -0.122076 -0.111892 -0.177772 -0.163617 -0.185332 -0.244406 -0.337514 -0.433971 -0.421482 -0.259234 -0.0851162 -0.0609998 -0.0831807 -0.152706 -0.212447 -0.323679 -0.367372 -0.283842 -0.213819 -0.212698 -0.222324 -0.239693 -0.192002 -0.1389 -0.119193 -0.0846019 -0.0838001 -0.109675 -0.182661 -0.210665 -0.245931 -0.228192 -0.159428 -0.113833 -0.113334 -0.183644 -0.24234 -0.354264 -0.400812 -0.307336 -0.228501 -0.25184 -0.35225 -0.410525 -0.421623 -0.333354 -0.226788 -0.196231 -0.151102 -0.0898003 -0.0674446 -0.177936 -0.309757 -0.350931 -0.400983 -0.434302 -0.473061 -0.467894 -0.388626 -0.241613 -0.189322 -0.0204394
260.5175 0.00025 0.0605302 -0.00170108 0.0654213 0.0277997 -0.0584529 -0.062963 -0.135442 -0.267362 -0.30566 -0.282975 -0.287098 -0.218103 -0.254841 -0.211043 -0.0832695 -0.0444129 -0.112488 -0.225485 -0.152764 0.0316963 0.11251 0.132978 0.143364 0.122844 0.0790058 -0.0136363 -0.0116984 0.0371288 0.0297841 0.00767584 -0.0442929 -0.0607407 -0.107054 -0.191955 -0.177088 -0.101849 -0.0401556 -0.0972974 -0.127411 -0.114489 -0.174764 -0.164771 -0.187696 -0.24999 -0.34125 -0.435786 -0.4223 -0.254915 -0.0843102 -0.0623029 -0.0845508 -0.155581 -0.213936 -0.325787 -0.369438 -0.281817 -0.210921 -0.20782 -0.213616 -0.233188 -0.192518 -0.143297 -0.121822 -0.0863445 -0.0834684 -0.10914 -0.184927 -0.211045 -0.243315 -0.226264 -0.163905 -0.120625 -0.117087 -0.185399 -0.244895 -0.358889 -0.403151 -0.304898 -0.223807 -0.246081 -0.346439 -0.40796 -0.42469 -0.332821 -0.224148 -0.193413 -0.14479 -0.0810933 -0.0623618 -0.183064 -0.316542 -0.350803 -0.401057 -0.436469 -0.472899 -0.466914 -0.388837 -0.241757 -0.187929 -0.0171173
260.52 0.00025 0.0570704 -0.0084815 0.0725444 0.0423899 -0.0502958 -0.0617175 -0.130185 -0.263613 -0.30351 -0.284437 -0.281935 -0.215924 -0.253788 -0.211951 -0.079637 -0.0344907 -0.108018 -0.229489 -0.159321 0.0263502 0.108002 0.134509 0.145589 0.12904 0.085764 -0.0110134 -0.00822454 0.0456081 0.0344177 0.0114136 -0.0455743 -0.0610537 -0.106095 -0.186989 -0.175255 -0.104277 -0.0413905 -0.0956599 -0.132387 -0.118072 -0.171326 -0.165753 -0.190221 -0.256122 -0.344665 -0.436876 -0.422604 -0.250376 -0.083828 -0.0632203 -0.0856325 -0.158307 -0.215255 -0.327419 -0.370868 -0.279939 -0.208284 -0.203019 -0.205173 -0.226459 -0.19307 -0.147948 -0.124336 -0.088299 -0.0836901 -0.108944 -0.187105 -0.2114 -0.240657 -0.224444 -0.168112 -0.127625 -0.121333 -0.187491 -0.247145 -0.363007 -0.404874 -0.302479 -0.219659 -0.240537 -0.340279 -0.405372 -0.427617 -0.332145 -0.221643 -0.190424 -0.138343 -0.072662 -0.0574619 -0.188406 -0.323232 -0.350565 -0.400956 -0.438895 -0.472717 -0.466062 -0.38911 -0.241942 -0.186527 -0.0138749
260.5225 0.00025 0.0536354 -0.0152902 0.0794073 0.0575773 -0.0425538 -0.0613793 -0.125447 -0.258896 -0.301247 -0.285141 -0.276133 -0.213691 -0.252053 -0.212183 -0.0754313 -0.026026 -0.102823 -0.231651 -0.165308 0.0212194 0.103226 0.135799 0.148351 0.135345 0.0919251 -0.00822514 -0.00486948 0.0543891 0.0390726 0.0155603 -0.0465372 -0.0612923 -0.105596 -0.182137 -0.172477 -0.106439 -0.0424408 -0.0930339 -0.136676 -0.12275 -0.167631 -0.166562 -0.193101 -0.262579 -0.347963 -0.437213 -0.422324 -0.245699 -0.0836586 -0.0637314 -0.0864574 -0.160903 -0.216458 -0.328605 -0.37161 -0.278201 -0.205951 -0.19834 -0.196998 -0.219553 -0.19363 -0.15284 -0.126728 -0.0903999 -0.084484 -0.109133 -0.189198 -0.211705 -0.237947 -0.222776 -0.17209 -0.13478 -0.125998 -0.190012 -0.249244 -0.366595 -0.405949 -0.300046 -0.216078 -0.235249 -0.33381 -0.402763 -0.430256 -0.331375 -0.219323 -0.187275 -0.131783 -0.0645119 -0.0528242 -0.193932 -0.329748 -0.35028 -0.400723 -0.441541 -0.472512 -0.465352 -0.389425 -0.242162 -0.185097 -0.0107015
260.525 0.00025 0.0500686 -0.0220877 0.0857618 0.0729511 -0.0349756 -0.0620401 -0.121983 -0.253496 -0.299144 -0.284858 -0.269996 -0.211307 -0.249655 -0.211862 -0.0708573 -0.0189724 -0.0970159 -0.231933 -0.170572 0.0162776 0.098342 0.136713 0.151778 0.141813 0.0973429 -0.00527684 -0.00167766 0.0633718 0.0438573 0.0199595 -0.0470699 -0.0614321 -0.10552 -0.177538 -0.16888 -0.10822 -0.0434106 -0.0894417 -0.140165 -0.128552 -0.163855 -0.167111 -0.196429 -0.269002 -0.351349 -0.436744 -0.421349 -0.240979 -0.0837593 -0.0638222 -0.08706 -0.163363 -0.217605 -0.329363 -0.371539 -0.276558 -0.203905 -0.193775 -0.189127 -0.212529 -0.19418 -0.157897 -0.12897 -0.0926286 -0.085837 -0.109722 -0.191204 -0.211943 -0.235189 -0.221247 -0.175904 -0.141998 -0.131023 -0.193053 -0.251332 -0.369665 -0.406306 -0.297574 -0.213058 -0.23024 -0.327056 -0.400118 -0.432439 -0.330549 -0.217212 -0.183945 -0.125117 -0.0565919 -0.0484935 -0.199644 -0.336034 -0.349987 -0.400376 -0.444372 -0.472292 -0.464816 -0.38978 -0.242411 -0.183648 -0.00760109
260.5275 0.00025 0.0467104 -0.028626 0.0910515 0.0879627 -0.0276016 -0.0633111 -0.120089 -0.247734 -0.297681 -0.283597 -0.263786 -0.208663 -0.246806 -0.211026 -0.0661603 -0.0131969 -0.0909359 -0.230521 -0.174869 0.011564 0.0934816 0.137246 0.155905 0.148475 0.101975 -0.00218211 0.00141175 0.0724699 0.0487845 0.0243848 -0.0470018 -0.0614352 -0.105803 -0.173165 -0.164494 -0.109473 -0.0443222 -0.0850782 -0.142695 -0.135318 -0.160159 -0.16735 -0.200318 -0.275199 -0.35506 -0.435517 -0.419544 -0.23632 -0.0840976 -0.0635306 -0.0874908 -0.16574 -0.218747 -0.329732 -0.370645 -0.275023 -0.202171 -0.189335 -0.181584 -0.205488 -0.194745 -0.163097 -0.131097 -0.0948383 -0.0877372 -0.110734 -0.193114 -0.212134 -0.232386 -0.219849 -0.179638 -0.149226 -0.136348 -0.196676 -0.25356 -0.372254 -0.405905 -0.295019 -0.210601 -0.225561 -0.320045 -0.397455 -0.434044 -0.329711 -0.215316 -0.180456 -0.11837 -0.0488566 -0.0445533 -0.205525 -0.342028 -0.349721 -0.399952 -0.447319 -0.472065 -0.464466 -0.390182 -0.242696 -0.182183 -0.0045804
260.53 0.00025 0.0431098 -0.0349044 0.0951434 0.102139 -0.0207534 -0.0650365 -0.119776 -0.241914 -0.296827 -0.281258 -0.257627 -0.205608 -0.243828 -0.209715 -0.0615687 -0.00863636 -0.0848533 -0.227336 -0.178054 0.0071507 0.0888032 0.13745 0.160704 0.155208 0.105723 0.000984314 0.00435486 0.0815648 0.054024 0.0286799 -0.0462208 -0.0613598 -0.106459 -0.169066 -0.159458 -0.110168 -0.045345 -0.0801407 -0.144213 -0.142867 -0.156753 -0.167278 -0.20484 -0.280999 -0.359156 -0.433647 -0.41677 -0.231832 -0.084626 -0.0629076 -0.0877917 -0.168045 -0.219941 -0.329762 -0.368854 -0.273506 -0.200782 -0.184981 -0.174399 -0.198473 -0.195306 -0.16834 -0.133111 -0.0969884 -0.090211 -0.112134 -0.194911 -0.212269 -0.229517 -0.218531 -0.183312 -0.156365 -0.141892 -0.200919 -0.256008 -0.37442 -0.404711 -0.29235 -0.208688 -0.221245 -0.312809 -0.394775 -0.434978 -0.328875 -0.213634 -0.176803 -0.111584 -0.0412677 -0.0410404 -0.211538 -0.347667 -0.349482 -0.399461 -0.450306 -0.471817 -0.464328 -0.390602 -0.243008 -0.180696 -0.00164186
260.5325 0.00025 0.0394633 -0.0407068 0.0983715 0.115155 -0.0144925 -0.0668679 -0.120805 -0.236285 -0.296426 -0.278062 -0.251717 -0.202123 -0.2411 -0.207983 -0.0572916 -0.00509879 -0.0792301 -0.222507 -0.180071 0.00312815 0.0843071 0.137369 0.166142 0.161984 0.108654 0.00402788 0.0071783 0.0905304 0.0595726 0.0326836 -0.0446164 -0.0612231 -0.107536 -0.165301 -0.153895 -0.110226 -0.0465283 -0.0747585 -0.144801 -0.15093 -0.153834 -0.166872 -0.209931 -0.286378 -0.363618 -0.431379 -0.412884 -0.22755 -0.0852752 -0.0619623 -0.0880157 -0.170292 -0.221193 -0.329473 -0.366203 -0.271982 -0.199745 -0.180715 -0.1676 -0.191557 -0.195818 -0.173562 -0.135069 -0.0990198 -0.0932201 -0.113872 -0.196561 -0.212404 -0.226646 -0.21731 -0.186968 -0.16339 -0.147615 -0.205822 -0.258775 -0.376275 -0.40271 -0.289505 -0.207269 -0.217317 -0.305367 -0.392058 -0.435135 -0.328032 -0.212168 -0.172997 -0.104803 -0.0337909 -0.0380357 -0.217669 -0.352908 -0.349288 -0.398962 -0.453282 -0.471583 -0.464424 -0.391045 -0.243339 -0.179187 0.00122143
260.535 0.00025 0.0356857 -0.0461224 0.100768 0.126956 -0.00900528 -0.0684256 -0.122894 -0.230803 -0.29627 -0.274079 -0.246056 -0.198271 -0.238724 -0.205907 -0.0533812 -0.0024751 -0.0744242 -0.21615 -0.180775 -0.000380585 0.0800241 0.137203 0.172203 0.16867 0.110883 0.00676656 0.0099409 0.0992406 0.0655252 0.0363183 -0.0421622 -0.0609444 -0.108932 -0.161885 -0.147908 -0.109524 -0.0479464 -0.0692087 -0.144566 -0.159211 -0.151498 -0.166253 -0.215471 -0.291313 -0.368224 -0.429039 -0.407706 -0.223516 -0.0859951 -0.0607269 -0.088194 -0.172492 -0.222529 -0.328898 -0.362708 -0.270366 -0.199078 -0.176486 -0.161175 -0.184834 -0.196314 -0.178737 -0.137033 -0.100908 -0.0967912 -0.115955 -0.198066 -0.212573 -0.223816 -0.216186 -0.190559 -0.170268 -0.153462 -0.21135 -0.261941 -0.377922 -0.399904 -0.286461 -0.206323 -0.213799 -0.297749 -0.389281 -0.43447 -0.327154 -0.210886 -0.169017 -0.0980352 -0.0263885 -0.0356029 -0.223894 -0.357724 -0.349152 -0.398487 -0.456195 -0.471364 -0.464763 -0.391508 -0.243675 -0.177671 0.00400442
260.5375 0.00025 0.0316918 -0.0510983 0.103021 0.137706 -0.00417074 -0.0697096 -0.125465 -0.22548 -0.295768 -0.269696 -0.240626 -0.194251 -0.236852 -0.203632 -0.0497243 -0.000910395 -0.0706293 -0.208624 -0.180162 -0.00345909 0.075906 0.137037 0.178799 0.175142 0.112618 0.00913291 0.0127419 0.107598 0.0719121 0.0395637 -0.0389155 -0.0604249 -0.110674 -0.158796 -0.14158 -0.108122 -0.0495221 -0.0636133 -0.14367 -0.167413 -0.149799 -0.165445 -0.221312 -0.29593 -0.372747 -0.427014 -0.401161 -0.21976 -0.0867332 -0.0592763 -0.0883815 -0.174669 -0.224009 -0.328045 -0.358424 -0.268633 -0.198826 -0.17228 -0.155094 -0.178377 -0.196743 -0.18376 -0.138991 -0.102573 -0.100858 -0.118309 -0.199327 -0.212763 -0.221067 -0.215171 -0.194042 -0.176967 -0.15936 -0.217413 -0.265625 -0.379485 -0.396356 -0.283164 -0.205786 -0.210708 -0.290003 -0.386438 -0.432994 -0.326222 -0.209794 -0.164855 -0.0913357 -0.0190425 -0.0338163 -0.230181 -0.362096 -0.349071 -0.398076 -0.458991 -0.471177 -0.465368 -0.392 -0.244021 -0.176141 0.00671631
260.54 0.00025 0.0275078 -0.0555111 0.105303 0.147472 0.000414786 -0.0708598 -0.128153 -0.220351 -0.29442 -0.265133 -0.235416 -0.190182 -0.23534 -0.201212 -0.0462124 -0.000422403 -0.0678488 -0.200203 -0.178064 -0.0061163 0.0719342 0.137093 0.185822 0.18126 0.114042 0.0109941 0.0156591 0.115502 0.0787433 0.0424228 -0.0349668 -0.0594373 -0.112767 -0.156129 -0.13497 -0.105997 -0.0511778 -0.0582485 -0.142197 -0.175231 -0.148752 -0.164555 -0.227353 -0.300232 -0.376944 -0.425597 -0.39324 -0.216244 -0.0874337 -0.0576335 -0.0886674 -0.176863 -0.225581 -0.326966 -0.353413 -0.266775 -0.198916 -0.168069 -0.14934 -0.172238 -0.197078 -0.188585 -0.140983 -0.104063 -0.105381 -0.120907 -0.20036 -0.213017 -0.218435 -0.214319 -0.197397 -0.183436 -0.165317 -0.223902 -0.269953 -0.381011 -0.3921 -0.279557 -0.205588 -0.208061 -0.282147 -0.383479 -0.430699 -0.325167 -0.208872 -0.160483 -0.0847413 -0.0117161 -0.0327335 -0.236481 -0.365978 -0.349017 -0.397764 -0.461617 -0.471038 -0.466251 -0.392501 -0.244366 -0.174599 0.00935379
260.5425 0.00025 0.0231572 -0.0593951 0.10809 0.155985 0.0050322 -0.071975 -0.130724 -0.215391 -0.291838 -0.260718 -0.23033 -0.186125 -0.234033 -0.198781 -0.0428284 -0.00120479 -0.0660308 -0.191289 -0.174504 -0.00842272 0.0680451 0.137431 0.193103 0.186865 0.115362 0.0123755 0.0187478 0.122829 0.0859502 0.0448914 -0.0304624 -0.0578876 -0.115103 -0.153729 -0.128107 -0.103271 -0.0527633 -0.0532827 -0.140339 -0.182426 -0.148366 -0.163731 -0.233495 -0.304209 -0.380677 -0.424866 -0.384068 -0.212862 -0.0880475 -0.0558612 -0.0891288 -0.179075 -0.227213 -0.325659 -0.347773 -0.264759 -0.199346 -0.16383 -0.143847 -0.166483 -0.197312 -0.193185 -0.142974 -0.105395 -0.110288 -0.123688 -0.201135 -0.213244 -0.215967 -0.213698 -0.200614 -0.189615 -0.171336 -0.230646 -0.275092 -0.382582 -0.387255 -0.275621 -0.205662 -0.205851 -0.274214 -0.380366 -0.427636 -0.323946 -0.208125 -0.155873 -0.0782584 -0.00444423 -0.0324144 -0.242745 -0.369371 -0.348994 -0.397581 -0.464015 -0.470933 -0.467412 -0.393026 -0.244699 -0.173043 0.0119208
260.545 0.00025 0.0185852 -0.0627839 0.111577 0.16336 0.0100948 -0.0728504 -0.133022 -0.210418 -0.287888 -0.256523 -0.225273 -0.182201 -0.232721 -0.196285 -0.0397722 -0.00328131 -0.0649471 -0.182181 -0.16952 -0.0104748 0.0642734 0.138104 0.200474 0.191948 0.116753 0.0133665 0.0221593 0.129518 0.093473 0.0470922 -0.0255773 -0.0556328 -0.117667 -0.151602 -0.121094 -0.0999786 -0.0540856 -0.0490006 -0.138211 -0.188672 -0.148567 -0.163082 -0.239613 -0.307875 -0.383883 -0.424733 -0.373949 -0.209459 -0.0884958 -0.0539713 -0.0898184 -0.181294 -0.22891 -0.324114 -0.341617 -0.262592 -0.200007 -0.159575 -0.138582 -0.161154 -0.197417 -0.197525 -0.144934 -0.106626 -0.11549 -0.126613 -0.201638 -0.213432 -0.21372 -0.213333 -0.203678 -0.1954 -0.177409 -0.237466 -0.281172 -0.384236 -0.38196 -0.271338 -0.205945 -0.204071 -0.266247 -0.377054 -0.42387 -0.322499 -0.207548 -0.150994 -0.0718827 0.00281191 -0.0329136 -0.248947 -0.372285 -0.348991 -0.397546 -0.466146 -0.470902 -0.468876 -0.39358 -0.24501 -0.171469 0.0144174
260.5475 0.00025 0.0140339 -0.0657798 0.115562 0.169589 0.0158764 -0.0734567 -0.134887 -0.205377 -0.282444 -0.252421 -0.220147 -0.178293 -0.231168 -0.193838 -0.0372667 -0.00672797 -0.0642676 -0.173157 -0.16328 -0.0122646 0.0607198 0.139108 0.207783 0.19646 0.11828 0.0140119 0.0258735 0.13542 0.101185 0.0490904 -0.0203601 -0.0526619 -0.120316 -0.149661 -0.113908 -0.0961889 -0.055068 -0.0455916 -0.135979 -0.193873 -0.149368 -0.162715 -0.245664 -0.311148 -0.386548 -0.424909 -0.363372 -0.205915 -0.0887122 -0.0520479 -0.0907905 -0.18355 -0.230668 -0.322369 -0.33507 -0.260305 -0.200819 -0.155272 -0.133451 -0.156278 -0.19738 -0.201607 -0.146863 -0.107803 -0.120885 -0.129643 -0.201878 -0.213478 -0.211745 -0.213281 -0.206621 -0.200717 -0.183538 -0.244212 -0.28827 -0.386005 -0.376337 -0.266676 -0.206327 -0.202679 -0.2583 -0.373484 -0.419467 -0.320795 -0.20713 -0.145825 -0.0656534 0.0100155 -0.0342836 -0.25503 -0.374744 -0.348985 -0.397695 -0.468007 -0.470939 -0.470629 -0.394154 -0.245291 -0.169892 0.0168363
260.55 0.00025 0.0093112 -0.0684266 0.120165 0.175038 0.0222485 -0.0735923 -0.136385 -0.200277 -0.275751 -0.248254 -0.214964 -0.174243 -0.229067 -0.191385 -0.0356886 -0.0115666 -0.063929 -0.164392 -0.156105 -0.0137752 0.0574639 0.140508 0.2149 0.20048 0.120095 0.0144943 0.0299623 0.140556 0.108892 0.0510889 -0.0149033 -0.0490214 -0.122861 -0.147971 -0.106553 -0.0920372 -0.0556015 -0.0431414 -0.133776 -0.197833 -0.150695 -0.162705 -0.251468 -0.31404 -0.388743 -0.425014 -0.352852 -0.20209 -0.0886182 -0.0501411 -0.0921072 -0.185883 -0.232438 -0.320428 -0.328238 -0.25786 -0.201702 -0.150963 -0.128427 -0.151905 -0.197243 -0.205435 -0.14875 -0.108961 -0.126392 -0.132744 -0.201853 -0.213313 -0.210011 -0.213545 -0.209469 -0.205501 -0.18972 -0.250778 -0.296405 -0.387979 -0.370545 -0.261671 -0.206749 -0.201645 -0.250425 -0.369593 -0.414503 -0.318814 -0.206812 -0.140356 -0.0595841 0.0171097 -0.0365787 -0.260974 -0.37677 -0.348978 -0.398011 -0.469545 -0.47108 -0.47267 -0.394753 -0.245529 -0.16831 0.019189
260.5525 0.00025 0.00470947 -0.0708184 0.125388 0.179635 0.0289985 -0.0730781 -0.1378 -0.195204 -0.268125 -0.243831 -0.209736 -0.170025 -0.226278 -0.188894 -0.0352173 -0.0177389 -0.0638295 -0.156067 -0.148306 -0.0149031 0.0546144 0.142322 0.221698 0.204075 0.122169 0.0149417 0.0344402 0.144868 0.116384 0.0532039 -0.00926655 -0.0447926 -0.125135 -0.146479 -0.0991312 -0.0875611 -0.0556495 -0.0417074 -0.131702 -0.200533 -0.152461 -0.16306 -0.256968 -0.316476 -0.390437 -0.424659 -0.342894 -0.19791 -0.08818 -0.0482623 -0.093782 -0.188311 -0.234093 -0.318294 -0.321257 -0.255312 -0.202589 -0.146682 -0.123478 -0.14804 -0.196974 -0.208992 -0.150557 -0.110119 -0.13189 -0.135873 -0.201577 -0.212865 -0.208537 -0.214136 -0.212252 -0.209723 -0.195862 -0.2571 -0.305455 -0.390238 -0.364707 -0.256341 -0.207107 -0.200887 -0.242652 -0.365298 -0.409037 -0.316549 -0.206545 -0.134561 -0.0536292 0.0240715 -0.0397815 -0.266707 -0.378398 -0.34894 -0.398485 -0.470752 -0.471304 -0.475009 -0.395386 -0.245716 -0.166732 0.0214772
260.555 0.00025 4.8777e-05 -0.0727983 0.130878 0.183617 0.035834 -0.071982 -0.13931 -0.190265 -0.26002 -0.239053 -0.204501 -0.165646 -0.222687 -0.18653 -0.0358675 -0.0250859 -0.0639278 -0.148257 -0.140155 -0.0155409 0.0523312 0.144591 0.228082 0.207255 0.124506 0.0155675 0.0393017 0.148307 0.123434 0.0556422 -0.00348164 -0.04011 -0.126928 -0.14515 -0.0917085 -0.0828555 -0.055228 -0.0413012 -0.12989 -0.202029 -0.154524 -0.163879 -0.262094 -0.318579 -0.391577 -0.423522 -0.333792 -0.193359 -0.0872782 -0.0464725 -0.0958374 -0.190834 -0.235653 -0.315989 -0.314205 -0.25265 -0.203352 -0.142441 -0.118551 -0.144642 -0.196605 -0.212282 -0.152329 -0.111313 -0.137329 -0.138988 -0.201054 -0.212083 -0.207294 -0.215087 -0.215039 -0.213393 -0.201894 -0.263164 -0.315254 -0.392942 -0.358959 -0.250763 -0.207312 -0.200343 -0.235051 -0.360536 -0.403145 -0.314044 -0.206254 -0.128476 -0.047776 0.0308208 -0.0439275 -0.272201 -0.379651 -0.348869 -0.399124 -0.471627 -0.471661 -0.477639 -0.396053 -0.245849 -0.165151 0.0237052
260.5575 0.00025 -0.00436843 -0.0741419 0.1364 0.186923 0.0424853 -0.0701449 -0.141121 -0.185712 -0.251949 -0.233842 -0.199177 -0.161307 -0.218318 -0.184324 -0.0375901 -0.0334022 -0.0641715 -0.141032 -0.131978 -0.0155397 0.0506832 0.147333 0.234061 0.210077 0.126948 0.0165506 0.0444842 0.150952 0.129849 0.0584939 0.00248479 -0.0350803 -0.128072 -0.143977 -0.084403 -0.0780122 -0.0544453 -0.0418404 -0.128414 -0.20251 -0.156717 -0.165166 -0.266749 -0.320356 -0.392143 -0.421388 -0.325705 -0.188625 -0.0858186 -0.0447794 -0.0982759 -0.19347 -0.237093 -0.313553 -0.307233 -0.2499 -0.203897 -0.138302 -0.113638 -0.141705 -0.196167 -0.215272 -0.154058 -0.112531 -0.142599 -0.14204 -0.200325 -0.210902 -0.206221 -0.216358 -0.217848 -0.216559 -0.20771 -0.268954 -0.325563 -0.396227 -0.353408 -0.24502 -0.207292 -0.199923 -0.227684 -0.355233 -0.396904 -0.311331 -0.205823 -0.122114 -0.041973 0.0372695 -0.0489989 -0.277453 -0.380575 -0.348761 -0.399894 -0.472157 -0.472153 -0.480528 -0.396753 -0.245932 -0.163591 0.0258592
260.56 0.00025 -0.00855052 -0.0748576 0.141605 0.189736 0.0487437 -0.067631 -0.143271 -0.181796 -0.244483 -0.228239 -0.193755 -0.157247 -0.21322 -0.182343 -0.0401854 -0.0426003 -0.064517 -0.13418 -0.124044 -0.0148114 0.0498578 0.150447 0.239521 0.21258 0.129419 0.0181647 0.0498606 0.152746 0.135378 0.0618825 0.00858608 -0.0298763 -0.128423 -0.142814 -0.0772452 -0.0732808 -0.0533938 -0.0431819 -0.127193 -0.202164 -0.158883 -0.16697 -0.270895 -0.321821 -0.392086 -0.41812 -0.318559 -0.183931 -0.0837556 -0.0432254 -0.101098 -0.196211 -0.238335 -0.310961 -0.300402 -0.247048 -0.204187 -0.134278 -0.10874 -0.139201 -0.195685 -0.217952 -0.155784 -0.11378 -0.147617 -0.145001 -0.199402 -0.209308 -0.205261 -0.217912 -0.220681 -0.219263 -0.213221 -0.274437 -0.33612 -0.400209 -0.348171 -0.239215 -0.206972 -0.199525 -0.220594 -0.349321 -0.390324 -0.308462 -0.205144 -0.115536 -0.0361885 0.0432867 -0.0549474 -0.282437 -0.381179 -0.348603 -0.400769 -0.472336 -0.472778 -0.483657 -0.397489 -0.245945 -0.162033 0.0279665
260.5625 0.00025 -0.0123098 -0.0747917 0.146141 0.192264 0.0543504 -0.0642072 -0.145739 -0.178635 -0.23794 -0.222201 -0.188231 -0.153593 -0.207417 -0.180664 -0.0436362 -0.0525974 -0.065007 -0.127522 -0.116613 -0.0134455 0.0499593 0.153916 0.244375 0.214794 0.131766 0.0206404 0.0553449 0.153678 0.139958 0.065872 0.0147816 -0.0246016 -0.127854 -0.1415 -0.0702908 -0.068869 -0.0521945 -0.0451848 -0.126263 -0.201297 -0.160886 -0.169356 -0.27453 -0.32302 -0.391374 -0.413627 -0.312236 -0.179572 -0.0810573 -0.041717 -0.104255 -0.199051 -0.239352 -0.308216 -0.293778 -0.244106 -0.204135 -0.130417 -0.103879 -0.137095 -0.195194 -0.220317 -0.157527 -0.115127 -0.152268 -0.147787 -0.198303 -0.207315 -0.204348 -0.219712 -0.22358 -0.221599 -0.218411 -0.279609 -0.346725 -0.404934 -0.343398 -0.233476 -0.206303 -0.199032 -0.213833 -0.342757 -0.383462 -0.305515 -0.204118 -0.108783 -0.0303199 0.0487921 -0.0616852 -0.287142 -0.381488 -0.348407 -0.401704 -0.472177 -0.473573 -0.487014 -0.39827 -0.245903 -0.160491 0.0300201
260.565 0.00025 -0.0156868 -0.07396 0.149492 0.194506 0.0591041 -0.059999 -0.148669 -0.176231 -0.232561 -0.215921 -0.182646 -0.150472 -0.200968 -0.179076 -0.0478363 -0.0632365 -0.0655863 -0.120993 -0.109898 -0.0116029 0.0510459 0.157719 0.248595 0.216766 0.133915 0.0241525 0.0608616 0.1539 0.143523 0.0704437 0.0210228 -0.0193389 -0.126347 -0.139982 -0.0635934 -0.0649786 -0.0509341 -0.0477131 -0.125561 -0.200176 -0.162608 -0.172237 -0.277668 -0.323986 -0.389983 -0.407818 -0.30651 -0.175789 -0.0777735 -0.0402491 -0.107711 -0.202012 -0.240168 -0.305337 -0.287455 -0.241072 -0.203637 -0.126707 -0.0990397 -0.13533 -0.194729 -0.222381 -0.159307 -0.116538 -0.156497 -0.150318 -0.197021 -0.204932 -0.203368 -0.221728 -0.226565 -0.223636 -0.223266 -0.284437 -0.3572 -0.410385 -0.339236 -0.227931 -0.205244 -0.19833 -0.207424 -0.335533 -0.376322 -0.302547 -0.202644 -0.1019 -0.0242657 0.0536481 -0.069114 -0.291589 -0.381548 -0.348195 -0.402693 -0.471703 -0.474525 -0.490578 -0.399077 -0.245794 -0.158967 0.0320146
260.5675 0.00025 -0.0185575 -0.072183 0.151474 0.19644 0.0627764 -0.0551429 -0.151892 -0.174507 -0.228163 -0.209605 -0.177076 -0.147887 -0.194307 -0.177328 -0.0528502 -0.0744281 -0.0663794 -0.114568 -0.103964 -0.00932853 0.0532159 0.16181 0.252156 0.218525 0.135841 0.0287138 0.0662967 0.153321 0.146178 0.0755326 0.0272032 -0.0141372 -0.123921 -0.138033 -0.057197 -0.0619221 -0.0496444 -0.0505901 -0.125063 -0.199081 -0.164084 -0.175524 -0.280311 -0.324679 -0.387901 -0.400727 -0.301217 -0.172769 -0.0740145 -0.0387389 -0.111411 -0.205065 -0.240776 -0.302333 -0.281543 -0.237945 -0.202657 -0.12318 -0.0942258 -0.133834 -0.194314 -0.224134 -0.161156 -0.118048 -0.160257 -0.152549 -0.195591 -0.202191 -0.202274 -0.223905 -0.22961 -0.225445 -0.227805 -0.288866 -0.36739 -0.416445 -0.33587 -0.222728 -0.203797 -0.197314 -0.201371 -0.327643 -0.368923 -0.299583 -0.200605 -0.0949561 -0.017945 0.057711 -0.0771465 -0.295786 -0.381348 -0.347957 -0.403679 -0.470902 -0.475665 -0.494307 -0.399907 -0.245637 -0.157466 0.0339661
260.57 0.00025 -0.0211635 -0.0694584 0.152046 0.197985 0.0655033 -0.0500106 -0.155252 -0.173476 -0.224652 -0.203554 -0.171679 -0.145897 -0.187817 -0.175237 -0.058773 -0.0858994 -0.0673092 -0.108454 -0.098762 -0.00680083 0.0564886 0.166185 0.254996 0.220001 0.137643 0.0343325 0.0717116 0.152023 0.148095 0.0811241 0.0332157 -0.00897936 -0.120609 -0.135482 -0.0511079 -0.059856 -0.04836 -0.0535977 -0.124681 -0.198172 -0.165253 -0.179061 -0.282583 -0.325111 -0.385155 -0.392362 -0.296177 -0.170591 -0.0699577 -0.0371547 -0.115215 -0.208184 -0.241162 -0.2992 -0.276038 -0.234673 -0.201172 -0.11982 -0.0894474 -0.132598 -0.19398 -0.225652 -0.16307 -0.119671 -0.163494 -0.15441 -0.193997 -0.199132 -0.200995 -0.226186 -0.232699 -0.22709 -0.232054 -0.292918 -0.377194 -0.422943 -0.333458 -0.218029 -0.201996 -0.195879 -0.195672 -0.319125 -0.361262 -0.296669 -0.197965 -0.0880087 -0.0113038 0.060826 -0.0856982 -0.299799 -0.380929 -0.347718 -0.404633 -0.469821 -0.477 -0.49819 -0.40077 -0.245443 -0.155989 0.0358651
260.5725 0.00025 -0.0232834 -0.0657829 0.151266 0.198821 0.0672909 -0.0448853 -0.1585 -0.172992 -0.221725 -0.197956 -0.166762 -0.144323 -0.181801 -0.172854 -0.0656576 -0.0973242 -0.0686074 -0.102786 -0.0941827 -0.00399929 0.0608782 0.170894 0.257095 0.221091 0.139394 0.0409287 0.0770988 0.149998 0.149443 0.0870753 0.0389122 -0.0038971 -0.116519 -0.132174 -0.0453377 -0.0589531 -0.0471789 -0.0565889 -0.124375 -0.197562 -0.166212 -0.18273 -0.284518 -0.325188 -0.381734 -0.382844 -0.29124 -0.169211 -0.0658682 -0.0354506 -0.119021 -0.211333 -0.241372 -0.296 -0.270937 -0.231268 -0.199153 -0.116603 -0.0847587 -0.13157 -0.193758 -0.226956 -0.165025 -0.121421 -0.166205 -0.15581 -0.192228 -0.195813 -0.199501 -0.228525 -0.235838 -0.228611 -0.236048 -0.296638 -0.386502 -0.429677 -0.332136 -0.213987 -0.199886 -0.193945 -0.190294 -0.310038 -0.353338 -0.293792 -0.194677 -0.0810679 -0.00425339 0.0629221 -0.0945966 -0.303618 -0.380299 -0.347496 -0.405529 -0.468455 -0.478532 -0.502197 -0.401667 -0.245208 -0.154539 0.0377155