260.5025 0.00025 -63.414 -98.7679 -63.4344 -54.1712 -2.94218 5.40784 40.6192 52.177 76.7787 81.9037 47.5691 44.4613 28.3048 33.8412 54.7094 49.3022 36.7127 44.7091 39.1465 48.8189 41.357 29.2092 11.7156 -1.10253 -1.13007 9.53334 23.4827 52.4669 63.5095 47.693 27.8234 24.3192 3.06457 4.05938 8.65322 22.9274 37.2497 36.8618 50.9613 56.1086 71.8517 77.9134 93.1674 94.3796 93.0271 81.0711 78.6593 78.8349 76.3834 69.5347 59.8964 50.7464 55.2435 55.2369 62.7578 75.591 89.8783 113.378 143.198 146.897 163.233 170.96 158.8 159.233 149.714 153.738 152.581 152.771 150.952 141.683 136.683 127.523 129.375 136.249 124.87 111.198 99.5249 98.1969 100.7 94.2035 85.33 74.7838 75.3146 97.36 124.079 122.044 133.294 151.762 157.057 149.859 159.445 148.914 136.048 138.188 140.081 88.2521 121.992 121.937 67.4609 114.184
260.505 0.00025 -60.4669 -101.827 -63.445 -50.7207 2.15661 4.605 40.0121 51.8866 76.2682 83.169 45.7422 40.8665 26.6049 29.7221 51.6788 43.8165 35.4347 45.5128 41.3031 48.2682 37.4299 25.734 9.62132 -4.90118 -5.61126 4.00028 18.8971 50.1681 63.9672 48.2709 28.1001 22.8498 3.48346 3.03604 8.61075 24.0491 40.9782 39.0939 51.7714 60.0504 74.9393 82.9272 96.3991 97.728 96.369 83.1277 80.3748 78.6129 75.7233 67.691 57.6414 48.6111 54.6093 54.4074 61.3222 74.1499 90.689 113.858 144.244 148.529 164.616 174.659 162.601 163.079 153.896 155.865 154.025 153.133 151.51 142.288 136.454 127.232 128.422 134.254 123.341 110.98 99.8842 97.9773 100.455 93.1097 83.9318 73.8774 74.0403 98.2962 125.332 123.539 135.332 152.861 157.521 149.893 158.877 148.517 135.22 138.686 139.573 88.065 123.82 121.532 68.5735 113.872
260.5075 0.00025 -57.3972 -104.655 -63.8535 -46.7482 7.62031 3.95063 39.3011 51.8712 74.5678 83.3335 44.9378 37.6358 25.8207 26.1157 48.1244 38.3855 33.5308 45.4854 42.7747 46.8943 32.9039 21.617 6.83048 -9.1309 -10.8046 -1.99275 13.7392 46.7271 63.3653 48.495 27.7169 20.2634 3.42804 1.05066 7.84852 24.2393 43.9589 41.7461 52.756 64.4968 78.8307 87.8286 99.2435 100.271 98.7055 84.5342 82.0422 78.7458 75.4157 66.3735 55.8532 47.1719 54.7736 54.7689 61.4406 74.4046 93.1402 115.724 146.21 151.257 166.833 179.416 167.977 169.043 161.068 161.394 158.782 156.555 154.407 144.574 137.084 127.71 127.871 132.326 121.665 110.286 100.137 97.8271 100.414 92.319 82.5642 72.9569 72.7455 98.7482 126.161 124.669 136.89 153.367 157.665 149.892 158.105 148.053 134.476 139.444 139.345 88.7037 125.553 120.871 68.8167 112.864
260.51 0.00025 -54.7924 -107.469 -64.915 -42.137 13.0862 3.28699 38.5259 52.164 72.5802 82.6021 45.1684 34.9876 26.0722 23.7737 45.1813 33.9216 32.1224 45.7229 44.6777 45.8123 28.956 17.7467 3.45274 -13.8315 -16.5853 -8.34165 8.21184 42.2901 61.5259 48.4847 27.1814 17.1192 2.72622 -1.94336 6.13304 22.9071 44.8787 43.9502 53.539 68.7628 83.275 93.3163 103.696 104.087 102.22 87.0667 84.1577 78.77 75.1572 65.1726 54.2603 46.1906 55.4557 55.9354 62.4933 75.6333 96.6713 118.519 148.7 154.806 169.697 184.455 173.651 175.032 168.422 167.459 164.664 161.857 159.434 149.591 139.809 129.951 128.847 131.012 119.863 108.804 99.7118 97.1807 100.121 91.2481 80.9831 72.0354 71.5851 98.8191 126.685 125.572 138.172 153.527 157.607 149.836 157.288 147.513 133.6 140.129 139.446 90.7652 128.306 121.202 69.5719 111.625
260.5125 0.00025 -53.0323 -110.165 -66.2857 -37.3785 18.1574 2.54981 37.1777 52.6748 70.537 81.6766 47.0454 33.4133 27.0252 22.4194 41.99 29.9905 31.1265 46.2091 47.4342 45.3346 25.4743 13.9284 -0.197314 -19.0447 -22.7378 -14.9792 2.67935 37.0607 58.3091 48.1008 26.1581 13.697 1.53067 -5.2085 3.80538 20.4299 43.8181 45.6745 53.3934 71.9463 87.5324 97.9433 108.462 108.795 106.771 90.461 86.5459 78.829 74.9268 63.8811 52.6698 45.1903 55.7242 56.4962 63.0319 76.3719 100.172 121.502 151.107 158.572 173.126 189.63 179.138 180.358 174.712 171.83 168.263 164.702 161.559 152.786 141.529 131.758 129.82 129.705 117.899 106.728 98.6216 95.9318 99.2811 89.5431 79.0568 71.0246 70.5272 98.7247 127.068 126.288 139.279 153.561 157.791 150.138 156.807 147.367 133.022 140.687 139.474 93.7206 131.792 123.174 71.576 110.364
260.515 0.00025 -51.4222 -112.704 -67.5122 -32.8146 22.5376 1.82433 35.3673 53.366 68.1731 80.0245 49.7552 32.6131 28.1814 21.295 37.5787 26.0235 30.2586 46.3687 49.946 45.0063 22.452 10.1673 -3.38476 -23.7377 -28.2821 -21.5006 -2.58542 31.4407 54.2525 47.5328 24.769 10.308 0.39512 -8.02177 1.06162 17.3406 41.5325 46.9132 52.7483 74.014 91.2203 101.498 112.87 113.415 111.276 93.8676 88.7519 78.5992 74.3334 62.244 50.6591 43.4971 54.9804 55.9695 62.5421 76.0607 102.473 123.708 152.806 161.642 175.848 193.788 183.95 185.049 180.208 174.93 170.035 165.524 161.228 153.717 141.448 132.067 130.047 128.137 115.791 104.301 97.0833 94.3838 98.2515 87.817 77.3399 70.4761 70.2115 99.1174 127.995 127.501 140.959 153.712 158.204 150.764 156.549 147.391 132.522 141.037 138.894 96.2917 134.262 124.291 74.0076 109.703
260.5175 0.00025 -49.9363 -115.199 -68.4159 -28.2437 26.6461 1.28485 33.7001 54.3314 65.7466 77.6379 53.1784 32.7874 29.6716 20.8216 33.094 22.7914 30.2301 46.613 52.4232 44.898 20.3506 7.10285 -5.70647 -27.4849 -32.6758 -26.7132 -6.56454 26.5564 50.598 47.3198 23.6689 7.3732 -0.617458 -10.5295 -1.11801 14.8221 39.1466 48.6871 53.0939 75.6333 94.5132 104.196 117.174 117.772 115.384 96.7299 90.3308 77.7188 72.9964 60.0887 48.2728 41.4671 53.5599 54.5098 61.0903 74.7365 103.273 124.573 152.991 163.167 176.943 196.22 187.49 188.469 184.667 177.114 170.945 165.843 160.074 153.996 141.051 132.005 130.111 126.539 113.653 101.732 95.5099 93.1945 97.9382 87.0513 76.9224 71.5976 71.8656 101.052 130.515 130.48 144.461 155.295 159.991 152.534 157.065 147.805 131.886 140.771 137.338 98.3456 135.74 123.889 75.5173 108.977
260.52 0.00025 -48.3276 -117.802 -68.4901 -24.1902 29.9208 1.59509 32.2598 55.3023 63.5582 75.2675 57.4262 33.784 31.7279 21.7042 29.6247 20.9069 30.8704 47.4109 55.3791 45.6064 19.7825 4.88017 -7.51177 -30.891 -36.6768 -30.9795 -9.55518 22.2859 47.3629 47.6252 22.9146 5.26103 -1.20661 -12.2885 -2.50638 13.3069 36.9207 50.9822 54.4148 77.6143 98.4287 106.998 122.095 122.951 120.076 99.8513 91.7588 76.6501 71.2458 57.564 45.6082 39.1674 51.6233 52.644 59.4152 72.9713 103.227 124.498 151.794 163.109 176.507 196.923 189.449 190.271 188.173 179.07 171.818 166.536 159.018 154.301 141.071 132.438 130.82 125.797 112.428 99.7756 94.3169 92.5925 98.1585 86.7715 76.9332 73.3004 74.5116 103.811 134.012 134.825 149.269 158.091 163.346 155.426 158.264 149.159 131.984 140.403 135.359 100.335 135.935 121.911 74.9464 106.515
260.5225 0.00025 -46.3579 -120.789 -68.1274 -21.6275 31.516 2.65542 31.4963 56.0414 61.4613 72.5873 61.836 35.7361 34.3071 23.9925 27.197 20.287 32.3059 48.5855 58.3498 47.2325 20.2575 3.10022 -9.32388 -34.2004 -40.8283 -35.1256 -12.0688 18.4896 44.85 48.5348 23.3251 4.64308 -0.653608 -13.0201 -3.07731 12.6322 34.7833 52.9607 55.8779 79.6584 102.596 109.945 127.214 128.727 125.479 103.535 93.3691 75.9501 69.3131 54.9269 43.2796 37.3746 50.0434 51.0274 57.9637 71.2333 102.668 123.995 149.847 162.093 175.283 196.476 190.706 191.447 191.123 180.84 172.447 167.478 158.185 154.889 141.826 133.568 132.509 126.15 112.365 98.4165 93.0676 91.7603 97.9979 86.039 76.3736 74.1972 76.2717 105.325 136.261 138.36 153.379 160.134 166.269 157.951 158.912 150.5 132.903 140.733 133.906 103.047 135.776 119.679 74.0177 102.973
260.525 0.00025 -44.191 -124.11 -66.8202 -20.3755 31.4924 3.9364 30.7958 55.6275 59.1048 69.4135 65.5086 37.8994 36.6523 26.9478 25.5574 20.7533 34.3232 49.9497 60.9398 49.4938 21.4115 1.4404 -11.3431 -37.039 -44.3269 -38.5643 -13.9813 15.2824 42.5852 49.5357 24.5989 4.89632 0.574657 -12.8702 -2.9784 12.4077 32.6378 54.6525 57.586 81.7526 106.496 112.489 131.757 134.828 130.961 106.93 94.325 75.1178 67.2843 52.6214 41.7351 36.512 49.0829 49.7356 56.859 69.7655 102.019 123.834 148.322 161.391 174.356 195.874 192.011 192.409 193.669 182.658 173.036 168.475 157.394 155.42 143.058 135.14 134.51 127.084 112.98 97.4265 91.3753 90.1824 97.0846 84.6473 75.0944 74.1479 76.8445 105.153 136.745 140.486 155.905 160.468 167.587 159.112 158.533 150.803 133.315 140.786 132.397 106.457 136.128 118.502 74.0478 100.257
260.5275 0.00025 -42.1232 -126.735 -65.4284 -20.14 29.4274 5.49342 29.8303 53.7468 56.4074 66.0719 67.8053 40.1393 38.05 29.1707 23.7752 21.158 36.2539 51.2052 62.7068 51.4013 23.1141 0.0922231 -13.2353 -38.8348 -46.6561 -40.4535 -15.263 12.6132 40.4493 49.6785 25.6787 5.15638 1.2564 -12.9803 -3.20098 12.4323 30.662 55.9988 59.9311 84.7561 110.977 116.595 137.152 142.406 137.559 110.887 95.3747 74.515 65.4522 50.9506 41.1106 36.4711 48.5434 48.5755 56.4468 69.2219 102.176 124.676 148.217 162.265 175.097 196.816 195.053 194.542 196.973 185.339 174.147 169.814 156.511 155.259 143.957 136.388 135.818 127.463 113.436 96.8893 90.2111 89.0517 96.2224 83.5006 74.023 73.9839 77.0671 104.3 136.225 141.911 157.523 159.83 168.01 159.517 157.4 150.37 133.115 140.074 130.569 110.373 137.061 118.678 75.4766 98.9562
260.53 0.00025 -40.0421 -129.333 -64.7205 -21.2191 25.5733 6.84125 29.0358 50.3667 53.1695 62.4246 68.3225 42.3017 38.5883 30.8022 22.3777 21.4412 37.9112 52.2717 63.5477 52.7801 24.8944 -1.08229 -15.3836 -40.3359 -48.985 -41.8984 -16.503 9.92173 37.8973 48.1366 25.697 5.22346 1.28948 -13.5994 -4.21421 12.2374 28.8064 56.6164 62.1971 87.9354 114.977 121.477 142.26 151.031 145.226 115.65 97.255 75.0509 64.2783 50.1439 41.4069 37.39 48.8623 48.3917 57.4677 70.1906 103.082 126.531 149.231 164.348 177.471 199.593 200.764 199.387 202.83 190.773 177.857 173.279 157.4 155.911 145.393 138.002 136.914 127.622 113.641 96.5427 89.2415 88.1894 95.7496 83.1213 73.5313 74.0002 77.413 103.268 135.075 142.934 158.644 158.783 168.337 159.91 155.883 149.567 132.958 139.506 129.001 114.558 137.876 118.749 75.983 97.4923
260.5325 0.00025 -38.096 -131.917 -64.2109 -22.5621 20.4948 8.30127 28.5399 46.1791 49.9747 58.1842 66.5536 43.7778 38.5854 32.2 21.9307 22.6274 39.6546 53.3566 63.5712 53.5135 26.0705 -2.60066 -18.7375 -42.7399 -52.4131 -44.2133 -18.6551 6.79489 34.8938 45.3279 24.4894 4.14304 0.378692 -14.9494 -6.38545 11.2218 26.8415 56.7697 64.7936 91.5316 118.429 126.28 145.26 158.334 152.864 120.867 99.662 76.4543 63.4603 49.969 42.1867 39.0908 50.1426 49.6153 59.9469 72.6037 105.033 129.433 151.045 167.148 180.335 202.558 207.18 205.339 209.86 198.546 184.883 180.204 162.245 160.366 150.218 142.538 140.267 129.233 114.689 96.4026 87.7932 86.7277 94.7411 82.3827 72.8304 73.9652 77.7797 102.113 133.353 143.54 159.402 157.522 168.44 160.16 154.136 148.362 132.63 138.864 127.994 119.676 139.533 119.616 76.8254 96.0384
260.535 0.00025 -36.2207 -132.946 -64.1132 -23.5414 15.2267 10.7027 28.7543 42.7437 47.6462 54.8149 63.2122 45.0922 38.5846 33.6475 22.5867 25.0728 41.6638 54.7093 62.975 53.5918 26.9028 -4.08848 -23.0734 -45.5726 -56.4895 -47.0205 -22.0903 3.19024 31.523 41.7011 22.9756 2.52886 -1.22191 -17.0869 -9.97123 8.9637 23.9121 55.1325 67.4175 95.4433 121.781 132.767 150.012 167.317 162.218 127.045 102.393 78.1172 62.4717 49.8635 43.0739 41.2504 51.6812 51.2046 63.0938 75.7188 107.463 132.706 153.198 169.909 183.115 205.307 213.416 211.241 215.891 205.387 190.792 186.337 166.806 164.671 155.863 148.463 145.138 132.12 116.776 96.8785 86.1883 84.5081 92.6912 80.7407 71.5954 73.5906 78.0703 101.029 131.292 143.761 159.895 156.271 168.548 160.623 152.597 147.248 132.575 138.14 127.126 125.29 142.216 122.064 78.6401 94.7357
260.5375 0.00025 -34.7794 -132.601 -64.0211 -23.6324 10.1442 13.791 29.1747 39.7496 45.3753 52.1131 58.3326 46.172 38.6506 35.0783 24.1737 27.8864 43.8521 56.0259 62.326 53.4614 27.4559 -4.85769 -27.7896 -48.4546 -60.943 -49.8037 -26.3123 -0.409047 27.8026 37.3468 21.2331 0.813597 -3.13248 -19.6788 -14.7401 5.68052 20.3086 51.3211 68.2733 97.6967 123.645 138.398 154.103 175.477 173.486 134.868 106.303 80.3601 61.4346 49.5569 43.6384 43.0459 52.5265 51.9513 65.4935 78.3029 109.258 135.37 155.224 172.285 185.576 207.455 219.056 217.198 221.309 211.234 194.973 190.114 168.817 165.457 158.174 151.695 147.894 133.771 118.061 97.3644 84.5013 81.8686 89.9568 78.7028 70.3436 73.51 78.7761 100.408 129.429 144.145 160.495 155.095 168.77 161.395 151.391 146.302 132.747 137.298 125.935 130.051 143.998 123.641 80.6689 94.0976
260.54 0.00025 -33.7069 -131.55 -64.2948 -23.6868 5.22426 17.1878 29.2126 36.9874 43.0641 50.4391 52.1291 47.1079 38.8148 36.2678 26.0334 30.9074 46.1348 57.9037 62.486 53.8792 27.6913 -5.51323 -32.4014 -51.6027 -65.6299 -52.6981 -30.9792 -3.95943 23.9134 32.216 18.8997 -1.30552 -4.859 -22.37 -19.7804 1.98568 16.5479 46.1527 67.944 98.4998 124.515 142.379 156.759 180.016 183.5 142.574 110.431 82.6225 60.0639 48.7432 43.2886 43.8376 52.4216 51.5764 66.8058 79.8453 109.487 136.222 156.198 173.789 186.994 208.255 223.414 222.462 225.511 215.841 198.076 192.255 169.379 164.585 158.736 153.406 148.988 134.315 118.565 97.7519 83.0631 79.5555 87.6404 77.6029 70.3525 74.9008 80.8755 101.278 129.063 146.026 162.409 155.431 170.146 163.256 151.06 145.583 132.704 135.953 124.083 133.676 144.584 123.739 81.6553 93.9249
260.5425 0.00025 -33.0532 -130.286 -64.7365 -24.0824 0.930085 20.6641 28.9673 35.2948 42.719 50.0361 45.6425 48.1721 39.2641 36.665 27.6267 34.2162 47.6823 59.6773 63.1211 54.6902 28.3924 -5.31323 -35.5336 -53.7381 -69.1158 -54.5885 -35.5563 -7.29097 20.3112 26.9724 16.4315 -3.37715 -6.13277 -24.6635 -24.2566 -1.86969 13.0104 40.94 67.7552 98.7498 124.696 145.195 159.012 182.049 192.289 150.196 114.411 84.4867 58.3499 47.3784 41.9389 43.8572 51.5844 50.4128 67.4082 80.5159 108.452 135.237 155.154 173.376 186.333 206.534 224.997 225.818 227.932 219.168 200.83 194.075 170.132 163.683 159.003 155.208 149.983 134.835 119.173 98.8067 82.5824 78.2064 85.9597 77.343 70.9972 76.7938 83.6525 103.067 129.822 149.165 165.577 157.677 172.85 166.442 151.67 145.604 133.407 134.866 122.466 136.367 143.729 122.256 80.5175 92.1119
260.545 0.00025 -32.8488 -128.025 -65.4729 -24.3992 -2.55079 24.4001 28.9365 34.7622 43.8731 50.1378 39.4576 48.7501 39.9489 37.1128 29.5478 37.9064 48.8686 61.095 63.7088 55.6868 29.4299 -4.29266 -37.0662 -54.4268 -71.1798 -55.4721 -39.8025 -9.71335 17.5067 22.086 14.2293 -5.48718 -7.21315 -26.5531 -28.2472 -5.6903 10.0485 36.0213 67.4976 99.0303 125.387 147.574 162.02 183.033 200.107 158.64 119.219 86.322 56.4432 45.6217 40.1226 43.7298 50.819 49.333 67.8791 80.8602 106.875 133.342 152.993 171.782 184.481 203.391 224.817 228.455 229.656 221.88 203.576 196.171 171.57 163.549 159.739 157.737 151.9 136.192 120.455 100.73 83.122 77.3004 84.0344 76.9013 71.4103 78.1103 85.6172 103.908 129.555 151.288 167.957 160.002 175.109 169.445 152.442 146.003 135.069 134.847 122.297 139.221 142.625 120.655 78.9424 89.0366
260.5475 0.00025 -32.9193 -125.685 -66.0582 -24.3599 -5.14623 28.6173 29.1532 35.0607 45.982 50.3994 34.3568 49.4111 41.7907 38.4371 32.256 42.4879 50.5951 63.3109 65.142 56.9078 30.7905 -3.33173 -37.8237 -54.9846 -72.9605 -56.0678 -43.388 -11.2349 15.3348 17.9285 12.6139 -7.26442 -7.88715 -27.651 -31.1281 -8.82393 7.82436 31.5348 66.8752 99.0829 126.464 149.312 165.261 183.096 205.529 166.878 124.585 88.2625 54.6492 44 38.9148 44.4074 50.8164 48.6212 68.373 81.2178 105.161 131.207 150.723 170.186 182.663 199.896 223.682 230.672 231.185 224.252 206.241 198.198 173.44 164.115 160.973 160.901 154.494 138.199 122.213 103.076 84.1645 76.1353 81.3754 75.8168 71.173 78.6454 86.4676 103.395 127.812 151.613 168.474 161.156 175.842 171.147 152.594 145.78 136.171 134.638 122.86 142.546 142.567 120.283 78.4805 87.0571
260.55 0.00025 -33.8046 -123.332 -66.6492 -24.3928 -6.67414 32.6045 29.6699 35.1917 48.8083 50.7166 30.475 49.5383 43.6724 39.9371 35.1962 47.4034 52.6468 66.0302 67.2245 58.1049 32.2788 -2.32204 -37.5369 -54.7212 -73.8977 -56.0786 -46.6018 -12.6846 13.3961 14.5016 12.0253 -7.62343 -7.43968 -27.5936 -32.7576 -11.7295 5.63183 27.5886 65.8789 98.7868 127.414 150.015 167.943 182.806 208.06 174.366 130.096 90.2707 53.6169 43.3125 38.3027 45.4668 51.2296 48.2993 69.2135 81.8969 104.074 129.79 149.378 169.671 181.818 196.974 222.063 232.64 232.922 226.642 209.162 200.407 175.545 164.747 161.851 163.872 156.868 139.984 123.836 105.484 85.9186 75.6372 78.917 74.7145 70.7993 79.011 86.8829 102.364 125.525 150.944 167.825 161.762 175.529 171.915 152.229 144.855 136.546 133.511 123.183 145.488 143.239 121.136 79.5492 86.8992
260.5525 0.00025 -35.8909 -120.985 -67.9711 -24.9987 -7.26007 35.5564 30.1486 34.8187 51.8379 50.0708 27.8142 48.3515 45.3049 42.0579 38.343 52.4323 55.2156 68.831 69.8418 59.3429 33.9976 -1.10072 -36.1074 -53.2825 -73.5299 -55.2682 -49.0799 -14.0673 11.8129 11.7456 12.163 -7.23822 -6.1673 -26.8286 -33.958 -15.4119 2.84795 24.0145 65.0492 99.1567 129.008 151.385 171.555 184.071 209.137 182.011 137.281 93.3704 53.8831 43.4966 37.9851 46.7975 52.3756 49.0226 71.1959 83.7271 104.331 129.545 149.34 170.775 182.832 196.116 221.91 236.015 236.547 230.23 213.196 203.594 178.598 166.132 162.622 166.606 158.87 141.382 124.865 107.611 88.2886 76.0368 77.1976 74.4619 71.0973 79.7332 87.3699 101.321 123.235 149.641 166.429 162.372 174.863 172.373 151.683 143.6 136.741 132.494 123.714 147.845 143.809 121.976 80.0049 86.7371
260.555 0.00025 -37.9695 -118.881 -69.8709 -26.0615 -6.6898 36.9896 30.1908 33.3792 55.0592 48.0775 26.5274 46.3479 46.4796 44.1641 40.9302 57.4635 58.2819 71.2198 72.1102 60.3004 35.7356 0.421177 -34.2797 -51.6146 -72.5206 -54.2201 -50.8983 -15.1488 10.3449 9.00685 11.8416 -7.74287 -5.41737 -26.1594 -34.9808 -19.2183 -0.253074 20.8879 63.8613 99.641 131.025 153.527 175.523 187.109 209.767 190.482 147.45 98.4754 55.8251 44.7034 38.527 49.1376 55.0129 51.1897 74.1019 86.6847 105.887 130.437 150.062 172.986 185.495 197.08 223.214 241.155 243.216 236.754 220.404 210.1 184.899 170.936 166.043 171.632 163.078 144.441 126.898 109.827 90.6381 76.4223 75.3553 74.0704 71.3236 80.5538 87.937 100.31 120.965 147.758 164.348 163.032 174.034 172.606 151.007 141.987 136.413 131.415 124.964 150.57 145.059 123.259 80.5571 86.4305
260.5575 0.00025 -39.6955 -117.025 -71.5077 -27.2183 -5.27869 36.826 29.9805 31.4727 58.2552 45.5889 26.876 44.0189 46.762 45.7166 42.1622 61.2372 60.7049 72.1147 72.7737 59.711 35.9843 1.46688 -32.9025 -49.901 -71.4316 -53.9166 -52.6733 -16.8555 8.41531 6.01849 10.3484 -9.80351 -6.40403 -26.5764 -36.44 -24.0223 -3.96453 18.3197 62.8226 100.107 132.478 154.998 178.145 190.16 209.073 197.371 158.42 104.887 58.9146 46.6325 39.6159 51.9392 58.3467 54.2505 77.5627 90.3951 108.528 132.553 151.596 175.847 188.588 198.476 223.796 244.97 249.874 244.152 229.13 218.847 193.617 178.726 172.751 179.782 170.766 150.676 131.635 113.626 93.7389 76.8397 72.7768 72.593 70.5913 80.7504 88.0769 99.1589 118.812 145.454 161.771 163.808 173.156 172.688 150.492 140.385 135.772 130.068 126.268 153.354 147.293 125.628 81.9188 86.3781
260.56 0.00025 -40.6073 -115.548 -72.9877 -28.4349 -2.94188 35.2832 29.4283 29.2268 60.2586 42.5538 27.8903 41.4537 46.4023 47.2823 42.9014 63.829 62.5564 71.7687 72.0887 58.348 34.9531 1.5975 -32.4472 -48.3367 -70.4477 -54.3315 -54.6089 -19.9014 5.45322 3.10331 8.30647 -13.1994 -8.82615 -28.068 -38.8743 -29.8536 -8.74689 15.1818 61.707 101.843 134.785 157.11 181.052 194.597 208.817 202.31 168.495 111.758 62.8742 49.0941 40.7737 54.4703 61.5204 57.3006 81.0143 94.1922 111.406 134.839 153.059 178.549 191.219 199.584 223.481 246.945 255.035 250.005 235.673 225.602 200.477 184.585 177.602 185.947 176.793 155.933 135.862 117.047 96.8167 77.2913 69.7968 70.4803 69.4762 80.7911 88.1929 98.1026 117.199 143.208 158.936 164.686 172.283 172.724 150.356 139.195 135.289 128.837 127.449 155.342 149.008 127.435 83.4141 86.7645
260.5625 0.00025 -40.2094 -114.237 -74.6604 -29.956 -0.312528 32.9838 28.1012 26.2544 60.5038 39.2286 28.626 38.9874 45.2581 48.4235 43.3557 65.5441 64.3729 71.0279 70.7011 56.5369 33.4445 1.77714 -32.8543 -47.3752 -69.9709 -55.54 -57.1596 -24.29 1.33162 -0.2854 6.16765 -16.8795 -11.6211 -30.1014 -41.5435 -35.514 -13.7467 11.7266 59.4846 102.898 136.499 159.341 183.792 199.484 209.936 207.355 179.508 119.809 67.4551 51.2947 41.2325 55.8502 63.609 59.4152 83.2216 96.8924 113.563 136.217 153.719 180.4 193.093 200.312 222.463 247.334 259.026 254.949 240.741 230.288 204.979 188.171 179.748 188.774 179.712 158.601 137.911 118.686 98.885 77.7917 67.2142 69.0679 69.3793 81.7525 89.2765 98.0699 117.105 142.144 157.089 166.872 172.485 173.549 151.055 138.457 134.603 127.35 128.171 156.044 149.334 127.779 84.1462 87.4816
260.565 0.00025 -38.7062 -113.281 -76.7656 -31.1603 2.84034 30.2694 26.417 23.276 59.2362 35.993 29.0441 37.4964 44.0115 48.8167 44.1447 66.917 66.3674 70.4219 69.1534 54.0935 31.4418 1.82815 -33.9204 -46.6204 -69.6273 -57.3356 -59.9837 -29.5045 -3.24539 -3.43011 3.94463 -20.4357 -14.3814 -31.9246 -43.6096 -40.5435 -18.4756 8.62403 56.2627 102.408 136.665 159.248 183.918 201.504 209.56 208.606 188.022 127.891 72.5377 53.136 40.7768 55.9395 64.6069 60.5166 84.1907 98.2836 114.353 135.94 152.885 180.555 193.279 199.763 219.782 245.229 260.809 258.402 244.574 234.139 208.773 191.37 181.518 190.783 181.778 160.503 139.273 119.833 100.837 79.0858 65.7518 68.7456 70.1136 83.2034 90.9516 98.927 118.307 142.171 156.674 170.781 174.194 175.518 152.94 138.607 134.371 126.328 129.026 155.691 148.168 126.482 82.8361 86.5216
260.5675 0.00025 -36.249 -112.736 -78.7315 -31.7402 6.52461 28.233 25.0426 20.8534 56.281 33.0203 28.837 37.2932 42.9907 49.1075 45.3999 68.4019 68.869 70.5664 68.0221 51.7643 29.3081 1.55371 -35.3912 -45.8008 -69.1032 -59.4665 -62.4353 -35.1406 -7.94599 -6.17802 1.38963 -24.0662 -16.8984 -33.3114 -45.0648 -45.0033 -22.401 6.2244 53.2374 101.626 136.008 158.363 183.038 201.489 208.582 207.628 193.188 134.916 77.8406 55.0101 40.115 55.6017 65.3233 61.3472 84.5941 98.6432 114.175 134.564 150.653 178.828 191.678 197.897 215.882 241.103 260.491 260.406 247.542 237.901 212.963 195.176 184.127 193.383 184.56 163.124 141.282 121.385 103.164 81.067 64.8693 68.6146 70.9415 84.3031 92.1378 99.3031 119.014 141.359 155.662 174.363 175.883 177.445 155.482 139.721 135.013 126.577 131.052 155.526 146.9 125.128 81.0712 83.7969
260.57 0.00025 -32.4584 -112.786 -80.0796 -31.8803 10.5825 26.9715 24.3113 19.3955 51.8495 30.0965 27.7239 37.824 41.1944 49.0755 46.5472 69.5795 71.347 71.8891 67.9632 50.9561 29.3939 2.43436 -35.7442 -43.8034 -67.8892 -60.9966 -64.3031 -40.7965 -12.581 -8.7119 -1.40038 -27.9307 -19.2819 -34.5007 -46.1318 -48.677 -25.3269 4.2194 50.3301 100.969 135.599 157.613 182.131 200.432 207.632 205.987 195.934 141.157 83.4336 57.4741 40.2887 55.518 66.0514 62.2542 84.5877 98.4722 113.886 133.175 148.342 176.843 189.986 196.2 212.213 236.308 258.984 261.493 249.748 241.273 217.295 199.544 187.918 196.92 188.295 166.697 144.203 123.419 105.675 83.1863 64.0414 67.9626 71.1347 84.4213 92.2634 98.6203 118.484 138.957 153.097 176.014 176.335 178.231 157.486 140.776 135.406 127.159 133.873 156.341 147.202 125.278 80.6811 82.2016
260.5725 0.00025 -28.302 -112.738 -80.2971 -31.8608 15.0223 26.2734 24.4031 19.4608 47.0713 27.6105 25.427 38.9531 39.0549 48.683 47.3754 70.3051 72.954 73.6058 68.0668 50.8665 30.6728 3.92184 -34.9494 -41.0761 -66.0813 -62.2922 -65.7422 -46.4037 -17.3907 -11.1823 -3.9762 -31.5782 -21.4934 -35.2936 -46.9575 -51.5524 -27.3048 2.89161 47.9136 100.375 135.368 156.556 180.946 198.075 205.806 203.247 195.68 145.936 89.7009 60.9635 41.4893 55.8536 67.096 63.5058 84.6815 98.3894 114.029 132.154 146.722 175.437 188.651 194.787 208.891 231.175 256.421 261.871 251.455 244.376 221.671 203.946 191.932 200.672 192.205 170.59 147.741 125.739 108.145 85.4804 63.64 67.2817 71.0809 84.0551 91.9601 97.5148 117.366 135.726 149.988 176.314 175.762 177.88 158.804 141.268 135.221 127.295 135.997 156.669 147.998 126.427 81.9916 82.6337
260.575 0.00025 -24.3466 -112.78 -79.8642 -32.0283 19.2537 26.2776 25.0329 20.0741 42.4309 25.3236 22.7322 40.7676 37.5437 48.0906 48.1952 71.109 73.7474 75.4217 67.7859 50.6103 32.3085 4.90559 -33.9306 -38.3882 -64.3456 -63.2062 -66.8094 -51.5049 -21.5704 -12.9425 -5.95459 -34.1018 -23.013 -35.2525 -47.1606 -52.9699 -27.6951 2.57419 46.04 99.3916 134.874 154.895 179.287 194.941 203.526 200.508 193.505 149.652 96.6085 65.1477 43.2164 56.4552 68.5627 65.5036 85.3829 98.8341 115.175 132.123 146.29 175.106 188.28 194.449 206.791 226.87 253.76 262.102 253.089 247.375 226.062 208.247 195.884 204.292 195.815 174.292 151.418 128.107 110.648 88.2041 64.0997 67.2902 71.6985 83.9324 91.8904 96.6074 116.221 132.286 146.927 175.871 174.585 176.684 159.633 141.488 134.831 127.781 137.797 156.266 148.422 127.575 83.1041 82.9622
260.5775 0.00025 -21.3269 -112.783 -78.6245 -32.4 22.9637 26.579 25.7121 20.7533 37.5271 22.8761 19.9303 43.7696 37.6241 48.0281 49.5152 72.5594 74.6842 78.0502 68.0279 50.5005 33.9494 5.48663 -31.7897 -34.9813 -61.923 -63.3554 -67.6094 -56.0329 -25.0933 -14.0862 -7.31177 -35.2418 -23.8614 -34.7639 -47.5162 -53.9883 -27.7508 2.82933 45.1303 98.7402 134.864 153.969 178.612 192.697 201.971 199.166 191.09 152.781 104.17 70.444 46.2543 58.0421 70.915 68.5914 87.0277 100.297 117.606 133.316 147.486 176.624 189.787 196.303 207.479 225.288 252.926 263.668 255.845 251.514 231.998 214.332 201.551 209.436 200.691 179.035 156.367 131.438 113.323 90.8522 64.8038 67.4708 72.6464 83.8145 92.0335 96.0407 115.092 128.614 143.847 174.773 173.276 175.174 160.297 141.63 134.101 128.46 139.93 156.242 149.204 128.848 84.0401 82.9871
260.58 0.00025 -19.0263 -112.187 -76.8705 -32.9231 26.1759 26.5921 26.4066 21.4808 32.9805 19.9572 16.5254 46.3813 38.7288 48.5007 50.7927 74.1108 75.4154 81.291 68.5467 51.0903 35.8743 6.25534 -28.5539 -31.3196 -59.1409 -63.077 -68.0657 -59.6653 -28.0049 -14.5633 -8.13688 -35.7999 -24.9307 -34.322 -47.7729 -54.5285 -27.8877 2.98418 44.7049 98.1581 135.425 153.904 178.781 191.69 201.902 200.269 190.202 156.425 112.753 77.217 51.0348 60.8468 74.1431 72.4918 89.4058 102.509 120.937 135.512 149.879 179.134 192.561 199.517 209.974 225.468 253.719 267.435 261.076 258.448 240.969 223.776 210.874 218.049 209.119 187.21 164.986 137.81 117.748 94.1936 65.6233 66.9712 72.9752 82.9979 91.6866 95.4627 113.926 125.042 141.038 173.254 171.89 173.504 160.92 141.715 132.835 128.553 141.379 156.251 150.582 130.625 85.4947 83.1664
260.5825 0.00025 -17.2868 -110.504 -74.4526 -33.4898 29.0612 26.5019 26.9765 21.7104 28.747 16.4937 13.1964 48.4686 40.3773 48.8369 51.9989 75.4903 75.9213 84.2675 68.9647 52.3588 37.8005 7.16615 -24.8266 -28.1948 -56.7358 -62.7864 -68.4635 -62.5186 -30.5186 -15.2325 -9.0849 -36.6612 -27.2405 -34.884 -47.7658 -54.4457 -27.6931 3.48404 44.8348 97.4858 135.804 153.34 178.111 190.742 201.896 201.652 189.167 159.719 121.854 84.9858 57.0017 64.552 77.8414 76.9515 92.2535 105.098 124.678 138.528 153.316 182.177 195.67 202.712 212.608 225.684 253.412 269.774 265.169 264.729 249.947 233.329 220.815 227.702 218.716 196.447 175.002 145.758 123.36 98.1637 66.675 66.0446 72.8449 81.5183 90.7804 94.7511 112.804 121.764 138.73 171.548 170.45 171.641 161.537 142.129 131.814 128.823 142.459 155.805 151.593 132.061 87.0458 83.5633
260.585 0.00025 -16.1132 -107.359 -72.0941 -34.2286 31.6742 26.3241 27.1383 20.952 24.7697 12.1926 10.0306 49.357 42.1948 48.4776 52.8014 76.4659 76.1035 86.2666 68.5172 53.8792 38.8565 7.61946 -21.4232 -26.4328 -55.3379 -63.17 -69.4995 -65.1262 -33.2703 -16.3783 -10.6825 -38.5008 -31.1372 -37.3705 -49.7019 -55.2132 -28.2189 3.69763 45.0909 97.1806 136.772 153.52 177.754 189.941 201.494 202.744 187.518 161.161 129.825 93.0065 63.4704 68.3388 81.2109 81.0016 94.6076 107.25 128.069 141.378 156.593 185.15 198.754 205.464 214.683 225.632 251.968 270.161 266.65 267.324 255.029 239.478 227.476 234.048 225.332 202.608 182.413 151.706 127.532 101.301 67.703 65.6355 73.4886 80.4231 90.2884 94.8347 112.194 119.41 137.91 170.625 169.878 170.401 162.515 142.844 131.014 129.344 143.337 154.583 151.399 132.213 88.1236 83.746
260.5875 0.00025 -16.2489 -102.792 -70.4471 -34.7292 33.3134 25.6311 26.9649 19.2952 21.3861 7.81139 7.32921 48.0921 44.467 48.1162 52.7965 76.2019 75.4861 86.7674 67.7 55.5243 39.0687 7.52719 -18.7075 -25.8251 -54.7 -64.2906 -71.4708 -67.566 -36.6951 -18.0648 -12.7154 -40.3417 -35.8048 -41.0554 -52.4851 -56.2311 -28.8932 4.01965 45.098 96.1421 137.408 154.461 178.265 190.255 202.028 204.63 186.691 161.75 135.753 99.9456 69.2054 71.1663 83.1638 83.6111 95.5549 107.946 129.944 142.644 158.162 186.425 200.395 206.932 215.371 224.596 249.359 269.379 266.703 267.758 257.236 243.382 232.22 238.266 229.88 206.634 188.095 156.82 130.917 104.196 69.2323 66.2328 75.0789 79.9369 90.4702 95.8824 112.302 118.301 138.441 170.824 170.688 170.273 164.611 144.468 130.901 130.292 143.898 152.637 149.791 130.556 87.4245 82.2462
260.59 0.00025 -17.3534 -97.4715 -69.6091 -35.5402 33.2104 24.5871 26.4556 17.1659 18.5686 4.03102 4.81543 44.8348 46.5195 47.8934 52.0304 75.0555 74.6952 86.4893 66.3562 56.9552 38.6079 7.19778 -16.7437 -25.927 -54.485 -65.8216 -74.1895 -69.7564 -40.7975 -20.4113 -14.6343 -41.5439 -40.3551 -44.6564 -54.3017 -56.3356 -29.304 4.19129 44.9554 94.1166 136.727 154.232 176.854 188.847 201.607 205.333 185.215 161.241 139.984 106.188 74.6313 74.0005 84.6193 85.4158 95.6025 107.205 130.122 142.561 158.302 185.812 200.282 206.602 214.533 222.626 245.695 267.557 265.801 267.253 258.575 247.095 237.01 242.302 234.466 210.712 193.825 162.757 134.8 107.528 71.4256 67.3404 77.1293 79.7855 90.7638 97.1295 112.234 117.438 138.823 170.466 171.32 170.63 167.507 147.119 131.935 132.253 144.927 151.267 148.218 128.479 86.0727 78.9185