260.5025 0.00025 0.178619 0.0117371 -0.176488 -0.252189 -0.248062 -0.318582 -0.391846 -0.534939 -0.554853 -0.557587 -0.547077 -0.463647 -0.322173 -0.290724 -0.290789 -0.181293 -0.177033 -0.196611 -0.133045 -0.0646455 -0.0398222 -0.0633506 -0.141873 -0.177491 -0.229015 -0.225364 -0.218506 -0.285189 -0.254869 -0.239462 -0.229489 -0.283654 -0.308022 -0.344069 -0.429753 -0.489256 -0.470534 -0.299716 -0.0615708 -0.00292727 0.118729 0.140504 0.0960791 0.0513128 0.0423359 0.117004 0.0654344 0.0420438 -0.0166318 0.0081804 0.0385676 -0.0102678 -0.0836922 -0.138789 -0.229096 -0.235379 -0.105457 -0.0824746 -0.111697 -0.11064 -0.0473663 0.0280041 0.125723 0.110086 0.0740072 0.0996128 0.166366 0.190419 0.174671 0.0984294 -0.0350389 -0.174414 -0.275548 -0.254727 -0.238793 -0.227841 -0.191729 -0.154946 -0.1933 -0.322492 -0.40101 -0.407564 -0.382685 -0.35747 -0.33722 -0.325823 -0.351146 -0.374669 -0.357285 -0.320477 -0.25054 -0.229536 -0.293011 -0.35408 -0.404263 -0.443983 -0.495536 -0.598108 -0.652576 -0.602447
260.505 0.00025 0.181433 0.0109892 -0.181381 -0.250347 -0.23909 -0.314581 -0.391294 -0.5298 -0.553558 -0.549833 -0.54735 -0.472892 -0.326456 -0.293908 -0.293838 -0.182991 -0.18175 -0.20075 -0.14252 -0.0670398 -0.0394661 -0.0614243 -0.138837 -0.17826 -0.233266 -0.227663 -0.215868 -0.277979 -0.241839 -0.229039 -0.224149 -0.282381 -0.30821 -0.34465 -0.423219 -0.485026 -0.471317 -0.302725 -0.0646739 -0.00471548 0.113884 0.138741 0.0964407 0.0522172 0.0436413 0.117002 0.0639384 0.0405724 -0.0175254 0.00858068 0.0430374 -0.00806437 -0.0814578 -0.140932 -0.228151 -0.233716 -0.104381 -0.0832516 -0.115867 -0.113849 -0.0504027 0.0199961 0.123678 0.115485 0.0805262 0.098898 0.162629 0.192877 0.174787 0.0980651 -0.0319261 -0.170996 -0.276163 -0.255193 -0.239174 -0.230672 -0.193865 -0.15647 -0.192751 -0.316488 -0.397112 -0.406412 -0.381226 -0.353908 -0.335364 -0.327164 -0.351985 -0.376773 -0.357071 -0.323708 -0.255678 -0.227591 -0.291522 -0.352824 -0.405003 -0.44851 -0.498369 -0.601257 -0.653888 -0.602568
260.5075 0.00025 0.183904 0.00970504 -0.186367 -0.24894 -0.230019 -0.310751 -0.390569 -0.524202 -0.553251 -0.542332 -0.545977 -0.482183 -0.331546 -0.296315 -0.296029 -0.185685 -0.186681 -0.204315 -0.151662 -0.0701441 -0.039161 -0.0603557 -0.135782 -0.178101 -0.237353 -0.230655 -0.213109 -0.271025 -0.229412 -0.218191 -0.219043 -0.281132 -0.307648 -0.345161 -0.416394 -0.48074 -0.472621 -0.303403 -0.0697051 -0.00534694 0.108371 0.136311 0.0969212 0.0538375 0.0457203 0.116346 0.0618879 0.0392645 -0.0178466 0.00899579 0.0471279 -0.00560817 -0.0793006 -0.143741 -0.227219 -0.23063 -0.102797 -0.085401 -0.120186 -0.116555 -0.0525968 0.0125036 0.120645 0.119892 0.0868771 0.0987586 0.158727 0.19549 0.175439 0.0977092 -0.0293316 -0.167286 -0.276226 -0.255796 -0.239155 -0.233349 -0.196113 -0.158237 -0.192778 -0.310673 -0.392749 -0.405117 -0.37971 -0.350243 -0.333601 -0.328653 -0.352764 -0.378864 -0.356723 -0.326379 -0.261229 -0.226105 -0.29027 -0.351138 -0.405613 -0.45303 -0.501275 -0.604392 -0.655202 -0.602673
260.51 0.00025 0.185825 0.00804651 -0.191435 -0.247827 -0.221041 -0.307197 -0.389664 -0.518165 -0.55394 -0.535173 -0.543058 -0.491326 -0.337533 -0.298019 -0.297192 -0.189468 -0.191825 -0.207171 -0.160323 -0.0739876 -0.0388667 -0.0601018 -0.13294 -0.177084 -0.241096 -0.234393 -0.210163 -0.264187 -0.217871 -0.206962 -0.214039 -0.279775 -0.306543 -0.345346 -0.409361 -0.476219 -0.474425 -0.302295 -0.0760514 -0.00527123 0.102475 0.133279 0.0974155 0.0561354 0.0486547 0.114994 0.0593518 0.0380836 -0.0175755 0.0094411 0.0508144 -0.00295124 -0.0772971 -0.147074 -0.226406 -0.2261 -0.10074 -0.0887981 -0.124514 -0.118984 -0.0540765 0.00581804 0.116724 0.123308 0.0928923 0.0991668 0.154786 0.197995 0.176637 0.0975274 -0.027281 -0.163356 -0.275689 -0.25652 -0.238803 -0.235788 -0.198455 -0.160247 -0.193309 -0.305156 -0.387906 -0.403662 -0.378131 -0.346529 -0.331907 -0.330241 -0.353517 -0.38087 -0.356323 -0.328457 -0.267094 -0.225155 -0.289271 -0.349073 -0.406063 -0.457516 -0.504256 -0.607525 -0.656515 -0.602774
260.5125 0.00025 0.187147 0.00595135 -0.196439 -0.246865 -0.212431 -0.303904 -0.388433 -0.511812 -0.555516 -0.528369 -0.538685 -0.500256 -0.344482 -0.299175 -0.297185 -0.194397 -0.197227 -0.20943 -0.168325 -0.0785973 -0.038496 -0.0605964 -0.130418 -0.175288 -0.244343 -0.23882 -0.20706 -0.257405 -0.207377 -0.19552 -0.209042 -0.278155 -0.305065 -0.345021 -0.402216 -0.471335 -0.476534 -0.300279 -0.082802 -0.00497268 0.0965709 0.129606 0.0978303 0.0591229 0.0525244 0.112985 0.0564029 0.0370123 -0.0167091 0.010023 0.0541474 -0.000134024 -0.0754752 -0.150746 -0.225687 -0.220205 -0.0983144 -0.0932227 -0.12875 -0.121293 -0.0550328 0.000213799 0.112049 0.125723 0.0984199 0.100017 0.150917 0.200218 0.178255 0.097663 -0.0257042 -0.159315 -0.274539 -0.257342 -0.238228 -0.237913 -0.200868 -0.162497 -0.194264 -0.300041 -0.382599 -0.402029 -0.376496 -0.3428 -0.330272 -0.331902 -0.354286 -0.382744 -0.355919 -0.329942 -0.273152 -0.224779 -0.288508 -0.346656 -0.406322 -0.461961 -0.507306 -0.610627 -0.657827 -0.602867
260.515 0.00025 0.187932 0.00327995 -0.201171 -0.246071 -0.204499 -0.300944 -0.386779 -0.505324 -0.557829 -0.522077 -0.532848 -0.508938 -0.352363 -0.299991 -0.296031 -0.200413 -0.202945 -0.211114 -0.175523 -0.0838797 -0.037971 -0.0617658 -0.128226 -0.172915 -0.246891 -0.243771 -0.203835 -0.250625 -0.198076 -0.184065 -0.203885 -0.276205 -0.303376 -0.344049 -0.394998 -0.466 -0.478597 -0.298439 -0.0889922 -0.00494332 0.0909303 0.125285 0.0982096 0.0627787 0.0572726 0.110326 0.0530815 0.0360236 -0.0152528 0.0107347 0.0571899 0.00276134 -0.0738797 -0.154693 -0.225087 -0.21308 -0.0956674 -0.0984125 -0.132874 -0.123701 -0.0557228 -0.00407488 0.106843 0.127179 0.10339 0.101205 0.147267 0.202066 0.180093 0.0982253 -0.0244474 -0.155257 -0.27274 -0.258213 -0.237539 -0.23967 -0.203315 -0.164982 -0.195578 -0.295393 -0.376854 -0.400174 -0.374821 -0.339087 -0.32867 -0.333615 -0.355103 -0.384421 -0.355544 -0.330874 -0.279256 -0.22506 -0.287993 -0.343927 -0.406375 -0.466344 -0.510441 -0.613715 -0.659151 -0.602949
260.5175 0.00025 0.188163 0.000230775 -0.205432 -0.245563 -0.197553 -0.298189 -0.384588 -0.498864 -0.560575 -0.516528 -0.525695 -0.517166 -0.361212 -0.300741 -0.29395 -0.207202 -0.209024 -0.212224 -0.181857 -0.0898033 -0.0373518 -0.0635094 -0.126361 -0.17014 -0.248612 -0.248975 -0.200648 -0.243797 -0.190045 -0.172878 -0.198388 -0.273902 -0.301517 -0.342402 -0.387818 -0.460198 -0.480229 -0.297727 -0.0938361 -0.00540994 0.0857312 0.120404 0.0984241 0.0669661 0.0628355 0.107094 0.0493748 0.0350673 -0.0132677 0.011608 0.0599871 0.00564479 -0.0724757 -0.158763 -0.22463 -0.204878 -0.092967 -0.103983 -0.13681 -0.126257 -0.0563781 -0.00698256 0.101297 0.127687 0.107734 0.102548 0.143926 0.203533 0.181963 0.0992281 -0.0233376 -0.151316 -0.270311 -0.259077 -0.236844 -0.241019 -0.205775 -0.167665 -0.197182 -0.29127 -0.370742 -0.398044 -0.373133 -0.335436 -0.327094 -0.335343 -0.355993 -0.38586 -0.355206 -0.331331 -0.285264 -0.226053 -0.287729 -0.340938 -0.406211 -0.470649 -0.513643 -0.616751 -0.660479 -0.603022
260.52 0.00025 0.187889 -0.00324845 -0.209075 -0.245309 -0.191836 -0.29562 -0.381812 -0.492605 -0.563386 -0.51197 -0.517631 -0.524492 -0.371179 -0.301633 -0.29124 -0.214335 -0.215476 -0.212762 -0.187319 -0.0961526 -0.0366846 -0.065565 -0.124781 -0.167166 -0.249395 -0.254074 -0.197762 -0.23687 -0.183312 -0.162253 -0.192428 -0.271321 -0.299479 -0.339994 -0.380734 -0.453831 -0.481182 -0.298849 -0.0970256 -0.00633487 0.0810076 0.115024 0.0985238 0.0716755 0.069163 0.103427 0.0453463 0.0341458 -0.0107687 0.0126394 0.0626169 0.00842021 -0.0712341 -0.16283 -0.224238 -0.195863 -0.0903999 -0.109549 -0.140483 -0.129119 -0.0572551 -0.00846176 0.095676 0.127324 0.111466 0.103944 0.140963 0.204592 0.183726 0.100581 -0.0221532 -0.147582 -0.26726 -0.259865 -0.236245 -0.241946 -0.208198 -0.170514 -0.199044 -0.287702 -0.364335 -0.395564 -0.371466 -0.331874 -0.32551 -0.337036 -0.356981 -0.387031 -0.35491 -0.331409 -0.291024 -0.227803 -0.287719 -0.337736 -0.405812 -0.474862 -0.51691 -0.61976 -0.661825 -0.603095
260.5225 0.00025 0.187127 -0.0071815 -0.212042 -0.245264 -0.187538 -0.293228 -0.378421 -0.486718 -0.565865 -0.508523 -0.509235 -0.530306 -0.382464 -0.302834 -0.288291 -0.221385 -0.222396 -0.212922 -0.192028 -0.102662 -0.0360883 -0.0677451 -0.123457 -0.164219 -0.249239 -0.258729 -0.195431 -0.229797 -0.177834 -0.152421 -0.185969 -0.268503 -0.297284 -0.336788 -0.37382 -0.446753 -0.481039 -0.302125 -0.0987427 -0.0075149 0.076617 0.109372 0.0984797 0.0767862 0.0761076 0.0995021 0.0409586 0.0332665 -0.00781471 0.0138732 0.0651317 0.0109583 -0.0700921 -0.16682 -0.223897 -0.186254 -0.088061 -0.114731 -0.143826 -0.13237 -0.058513 -0.00862489 0.0902017 0.126189 0.114607 0.105282 0.138411 0.205275 0.185302 0.102138 -0.0206562 -0.144113 -0.263623 -0.260533 -0.235845 -0.242455 -0.210548 -0.173485 -0.201126 -0.284694 -0.357719 -0.39267 -0.369851 -0.328429 -0.323919 -0.338652 -0.358074 -0.387918 -0.35462 -0.331197 -0.296369 -0.230313 -0.287978 -0.334348 -0.405179 -0.47897 -0.520242 -0.622729 -0.663194 -0.603162
260.525 0.00025 0.185978 -0.011476 -0.214199 -0.245367 -0.18477 -0.291032 -0.3745 -0.481305 -0.567555 -0.506245 -0.501028 -0.534222 -0.394972 -0.304579 -0.285483 -0.227949 -0.22968 -0.212847 -0.196135 -0.109094 -0.0358017 -0.0698725 -0.122335 -0.161476 -0.248185 -0.262603 -0.193787 -0.222626 -0.173545 -0.143586 -0.179005 -0.265446 -0.294841 -0.33277 -0.367139 -0.43896 -0.479599 -0.307598 -0.0995346 -0.00855126 0.0724756 0.10363 0.098235 0.0822414 0.0835558 0.0954819 0.0362337 0.0324452 -0.0044454 0.0153112 0.0675752 0.013192 -0.0690125 -0.170605 -0.223559 -0.176379 -0.0860891 -0.119188 -0.146717 -0.136114 -0.060244 -0.00767976 0.0850689 0.124406 0.117207 0.10646 0.136234 0.205637 0.186674 0.103727 -0.0186833 -0.140899 -0.259457 -0.26101 -0.235682 -0.24258 -0.212787 -0.176538 -0.203394 -0.28221 -0.350992 -0.389302 -0.368325 -0.325149 -0.322314 -0.340153 -0.359302 -0.388523 -0.354293 -0.330818 -0.301203 -0.233606 -0.288521 -0.330821 -0.404301 -0.482952 -0.52363 -0.625662 -0.664584 -0.603223
260.5275 0.00025 0.184397 -0.0161 -0.215546 -0.245579 -0.183508 -0.288953 -0.370158 -0.476375 -0.56807 -0.504877 -0.493506 -0.536361 -0.408101 -0.307192 -0.283143 -0.233768 -0.237236 -0.212772 -0.199818 -0.115145 -0.0359781 -0.0717852 -0.121317 -0.159023 -0.246266 -0.265418 -0.192896 -0.215485 -0.170308 -0.135961 -0.171648 -0.262067 -0.292169 -0.327988 -0.360735 -0.430467 -0.476582 -0.314914 -0.100233 -0.00908232 0.0684491 0.0980607 0.0977359 0.0879258 0.091318 0.091499 0.0311207 0.0316171 -0.000756291 0.0170129 0.0699327 0.0150448 -0.0679437 -0.174057 -0.223195 -0.166613 -0.084501 -0.122693 -0.14898 -0.140462 -0.0625279 -0.0059445 0.0804508 0.122134 0.11929 0.107417 0.13438 0.205729 0.187832 0.105221 -0.0162042 -0.137854 -0.25486 -0.261258 -0.235789 -0.242374 -0.214883 -0.179633 -0.20582 -0.280197 -0.344252 -0.385403 -0.366902 -0.322066 -0.320702 -0.341489 -0.360659 -0.388848 -0.353889 -0.33036 -0.30541 -0.237631 -0.289379 -0.327193 -0.4032 -0.486802 -0.527071 -0.62857 -0.665985 -0.603285
260.53 0.00025 0.182474 -0.0208197 -0.216136 -0.245873 -0.183791 -0.286865 -0.365596 -0.471961 -0.567063 -0.50402 -0.487092 -0.537165 -0.420888 -0.311076 -0.281477 -0.23878 -0.244872 -0.212995 -0.203347 -0.120637 -0.0367703 -0.0734215 -0.120373 -0.156973 -0.243658 -0.26698 -0.192676 -0.208483 -0.167938 -0.129642 -0.163986 -0.258277 -0.289314 -0.322429 -0.354678 -0.421389 -0.471786 -0.323717 -0.10168 -0.00892766 0.0646633 0.0928558 0.0970463 0.0937736 0.0992219 0.0877614 0.0257417 0.0308258 0.0032039 0.0190335 0.0721882 0.0165515 -0.0668524 -0.17709 -0.222757 -0.157353 -0.0832754 -0.125064 -0.150418 -0.14546 -0.0653666 -0.0037176 0.0764454 0.119526 0.120929 0.108171 0.132792 0.205575 0.188726 0.106533 -0.0133082 -0.134824 -0.249925 -0.261244 -0.236162 -0.241902 -0.216816 -0.182716 -0.208382 -0.278583 -0.337597 -0.380942 -0.365587 -0.319219 -0.319099 -0.342613 -0.362131 -0.388907 -0.353366 -0.329925 -0.30894 -0.242335 -0.290575 -0.323511 -0.40186 -0.490504 -0.530552 -0.631452 -0.667407 -0.603354
260.5325 0.00025 0.180263 -0.0254945 -0.215944 -0.246331 -0.185466 -0.284567 -0.361102 -0.468087 -0.564362 -0.503114 -0.4821 -0.537377 -0.432268 -0.316532 -0.280642 -0.243103 -0.252267 -0.21375 -0.206883 -0.125344 -0.0383027 -0.0747479 -0.119388 -0.155378 -0.240462 -0.267219 -0.192966 -0.201802 -0.166253 -0.124654 -0.156215 -0.253954 -0.286417 -0.316044 -0.348949 -0.411798 -0.465066 -0.333551 -0.104589 -0.00801406 0.0613165 0.0880501 0.0960726 0.0996841 0.107087 0.0843907 0.0201211 0.0300385 0.00739971 0.0214281 0.0742002 0.017747 -0.0657801 -0.179651 -0.222166 -0.149059 -0.0824021 -0.126152 -0.150799 -0.151181 -0.0687628 -0.00139243 0.0730353 0.116785 0.122212 0.108727 0.131466 0.205238 0.189339 0.107683 -0.0101522 -0.131605 -0.24474 -0.260956 -0.236777 -0.241229 -0.218569 -0.18575 -0.211057 -0.277286 -0.33113 -0.375905 -0.364369 -0.316656 -0.317516 -0.343489 -0.363713 -0.388727 -0.352682 -0.329592 -0.311803 -0.247628 -0.29216 -0.319822 -0.400292 -0.494035 -0.534054 -0.634302 -0.668848 -0.603419
260.535 0.00025 0.177775 -0.0299144 -0.215086 -0.247017 -0.188424 -0.281983 -0.356864 -0.4647 -0.559837 -0.501684 -0.478839 -0.537388 -0.441389 -0.323647 -0.280839 -0.246926 -0.259222 -0.215329 -0.210517 -0.129116 -0.0407554 -0.0757545 -0.118298 -0.154274 -0.236844 -0.266219 -0.193525 -0.195565 -0.165037 -0.120925 -0.148523 -0.248886 -0.283558 -0.308879 -0.343487 -0.401831 -0.456372 -0.34391 -0.109472 -0.00657048 0.0586304 0.0838184 0.0948905 0.105624 0.11473 0.0814794 0.0143282 0.0291901 0.0116962 0.0242388 0.0758824 0.0187423 -0.0646881 -0.181639 -0.221316 -0.142184 -0.0817925 -0.125875 -0.149937 -0.157643 -0.0727407 0.000803505 0.0701697 0.114077 0.123233 0.109131 0.130368 0.204709 0.189595 0.108703 -0.00691429 -0.128034 -0.239365 -0.260417 -0.237593 -0.24042 -0.220154 -0.188694 -0.213799 -0.276214 -0.324935 -0.370298 -0.363212 -0.314407 -0.315973 -0.344086 -0.365368 -0.388325 -0.351803 -0.329391 -0.314003 -0.253375 -0.294145 -0.31615 -0.398505 -0.497388 -0.53758 -0.637129 -0.670302 -0.603489
260.5375 0.00025 0.175138 -0.0338931 -0.213489 -0.247912 -0.192503 -0.279112 -0.353114 -0.461738 -0.553538 -0.499438 -0.477411 -0.53751 -0.447712 -0.332212 -0.282277 -0.250475 -0.265644 -0.217827 -0.214335 -0.131849 -0.0441868 -0.0764899 -0.117107 -0.153638 -0.23283 -0.26417 -0.194103 -0.189939 -0.16408 -0.118382 -0.14117 -0.242974 -0.280843 -0.300984 -0.338218 -0.391584 -0.445715 -0.354325 -0.116528 -0.00493711 0.0567216 0.0801236 0.0935196 0.111395 0.121879 0.0791069 0.00847443 0.0282185 0.0160124 0.0275053 0.0770641 0.0196095 -0.063599 -0.182975 -0.220146 -0.13706 -0.0814031 -0.124258 -0.14767 -0.164742 -0.0772616 0.00264622 0.0676857 0.111553 0.124091 0.109464 0.129505 0.203975 0.189445 0.109648 -0.00376033 -0.124018 -0.233817 -0.259668 -0.238558 -0.23953 -0.221597 -0.19154 -0.216561 -0.275273 -0.31908 -0.36415 -0.362083 -0.312521 -0.314478 -0.344394 -0.367026 -0.387745 -0.350727 -0.329357 -0.3156 -0.259436 -0.296572 -0.312545 -0.396516 -0.50056 -0.541118 -0.639946 -0.671784 -0.603569
260.54 0.00025 0.172413 -0.0372717 -0.211123 -0.249067 -0.197587 -0.276057 -0.349895 -0.459086 -0.545585 -0.496278 -0.47777 -0.537959 -0.451294 -0.341726 -0.285131 -0.254002 -0.271465 -0.221303 -0.21828 -0.133534 -0.04855 -0.0770708 -0.115794 -0.15343 -0.228454 -0.261299 -0.194486 -0.185062 -0.163184 -0.116905 -0.134341 -0.236183 -0.278308 -0.292441 -0.333064 -0.381201 -0.433293 -0.364378 -0.125773 -0.00354804 0.0557077 0.077056 0.0921363 0.116956 0.128456 0.0773225 0.0027206 0.0271034 0.0203207 0.0313294 0.0776692 0.0204462 -0.0625415 -0.183619 -0.218654 -0.133929 -0.081228 -0.121364 -0.143875 -0.172351 -0.0823252 0.00395397 0.0653715 0.109293 0.124872 0.109785 0.128905 0.203 0.188848 0.110511 -0.000769235 -0.119567 -0.228061 -0.258764 -0.239639 -0.238602 -0.22294 -0.194277 -0.219288 -0.274386 -0.313633 -0.357521 -0.360922 -0.311037 -0.313061 -0.344434 -0.368633 -0.386999 -0.349442 -0.329452 -0.316684 -0.265661 -0.299469 -0.309045 -0.394341 -0.503515 -0.544657 -0.642754 -0.673283 -0.60367
260.5425 0.00025 0.16958 -0.0399257 -0.207999 -0.250445 -0.203534 -0.273086 -0.347125 -0.456609 -0.536253 -0.492289 -0.479655 -0.538816 -0.452487 -0.35138 -0.289616 -0.257616 -0.276681 -0.225718 -0.222255 -0.134211 -0.053756 -0.0776906 -0.114348 -0.153603 -0.223728 -0.257811 -0.194524 -0.18098 -0.162143 -0.116393 -0.128239 -0.228582 -0.275875 -0.283514 -0.32796 -0.370763 -0.419352 -0.373631 -0.13709 -0.00278371 0.0555296 0.074544 0.0909647 0.122169 0.134384 0.0761349 -0.00279268 0.0258291 0.024511 0.0356614 0.0775687 0.021325 -0.0615089 -0.183483 -0.216899 -0.132947 -0.0812957 -0.117261 -0.138424 -0.180284 -0.0879615 0.00459269 0.0630549 0.107354 0.125641 0.1102 0.128623 0.201732 0.187825 0.111264 0.00205658 -0.114772 -0.222041 -0.257764 -0.240782 -0.237647 -0.224222 -0.196919 -0.221918 -0.273498 -0.308612 -0.350481 -0.359642 -0.309971 -0.311707 -0.34421 -0.370073 -0.386089 -0.347971 -0.329679 -0.317362 -0.27191 -0.302873 -0.305692 -0.392005 -0.506256 -0.548184 -0.645551 -0.674805 -0.603776
260.545 0.00025 0.166562 -0.0417772 -0.204078 -0.251983 -0.210233 -0.270406 -0.344714 -0.454065 -0.525795 -0.48762 -0.482696 -0.540096 -0.452 -0.360117 -0.295873 -0.261515 -0.28136 -0.231013 -0.226147 -0.134039 -0.0596155 -0.0784939 -0.112779 -0.154052 -0.2187 -0.253851 -0.194172 -0.177672 -0.160837 -0.116648 -0.122959 -0.220333 -0.273431 -0.274441 -0.322808 -0.360374 -0.404209 -0.381606 -0.150251 -0.00283219 0.0559927 0.0725886 0.0900998 0.126955 0.139542 0.0754062 -0.00795547 0.0244069 0.0285362 0.0404652 0.0767039 0.022249 -0.0604787 -0.182483 -0.214947 -0.1341 -0.0816813 -0.11213 -0.131323 -0.188264 -0.0940709 0.00446237 0.0605419 0.10575 0.126503 0.110807 0.128735 0.200215 0.186415 0.111813 0.00475185 -0.109772 -0.21568 -0.256713 -0.24197 -0.236686 -0.225477 -0.199472 -0.224402 -0.272573 -0.304014 -0.343131 -0.358177 -0.309355 -0.310445 -0.343822 -0.371316 -0.385055 -0.346336 -0.329977 -0.317726 -0.278019 -0.306775 -0.302533 -0.389516 -0.508771 -0.551707 -0.648347 -0.676337 -0.603894
260.5475 0.00025 0.16345 -0.0427293 -0.199385 -0.253567 -0.217581 -0.268302 -0.342582 -0.451235 -0.514488 -0.482367 -0.486403 -0.541844 -0.450674 -0.366955 -0.303879 -0.265946 -0.28554 -0.237181 -0.229911 -0.133161 -0.0660394 -0.0796377 -0.111081 -0.154682 -0.213484 -0.249507 -0.193512 -0.175052 -0.159127 -0.117485 -0.118603 -0.211639 -0.270823 -0.265497 -0.317536 -0.350085 -0.388338 -0.387811 -0.164956 -0.00384038 0.0568493 0.0711955 0.0896033 0.131213 0.143931 0.0750414 -0.0125648 0.0229424 0.0323847 0.0456633 0.0751276 0.023203 -0.0594569 -0.18062 -0.213012 -0.137239 -0.0824456 -0.106158 -0.122624 -0.195986 -0.100602 0.00341761 0.0577232 0.104328 0.127487 0.111702 0.129282 0.198421 0.184594 0.11208 0.00738566 -0.104702 -0.208949 -0.255644 -0.243181 -0.235729 -0.22675 -0.201974 -0.226669 -0.271583 -0.299811 -0.335587 -0.356445 -0.309185 -0.309262 -0.343311 -0.372262 -0.38386 -0.344579 -0.330288 -0.317906 -0.283869 -0.31115 -0.299588 -0.386912 -0.51103 -0.555216 -0.651152 -0.677896 -0.604042
260.55 0.00025 0.16029 -0.0427575 -0.194032 -0.25505 -0.225494 -0.267063 -0.340821 -0.447989 -0.502556 -0.476628 -0.490126 -0.543996 -0.449239 -0.37125 -0.313317 -0.271138 -0.289126 -0.244208 -0.233501 -0.131778 -0.072783 -0.0811464 -0.109228 -0.155332 -0.208145 -0.244865 -0.192598 -0.172965 -0.156965 -0.118744 -0.115156 -0.202742 -0.267868 -0.256916 -0.31211 -0.339941 -0.372097 -0.391854 -0.18085 -0.00582422 0.057805 0.0702231 0.0896109 0.134968 0.147582 0.0748809 -0.016508 0.0214652 0.0360174 0.0511273 0.0728906 0.0241373 -0.0583517 -0.177814 -0.21129 -0.142125 -0.0837045 -0.099548 -0.112497 -0.203105 -0.107478 0.00134485 0.054538 0.102942 0.128625 0.112948 0.130308 0.196405 0.182353 0.112052 0.00994305 -0.0996816 -0.201853 -0.254544 -0.244418 -0.234814 -0.228063 -0.204458 -0.228695 -0.270522 -0.29595 -0.327973 -0.354386 -0.309441 -0.308157 -0.342738 -0.372861 -0.382498 -0.342745 -0.33054 -0.31799 -0.289362 -0.315961 -0.296912 -0.384243 -0.51303 -0.558709 -0.653955 -0.679479 -0.604215
260.5525 0.00025 0.157065 -0.0419588 -0.18806 -0.256349 -0.233806 -0.266766 -0.339536 -0.444169 -0.490079 -0.47051 -0.493337 -0.546547 -0.448251 -0.372783 -0.323671 -0.277463 -0.292153 -0.251964 -0.236894 -0.13011 -0.0796168 -0.0831507 -0.107299 -0.155898 -0.202808 -0.240121 -0.191585 -0.171177 -0.154385 -0.120199 -0.112522 -0.19394 -0.264424 -0.248954 -0.306532 -0.330054 -0.355805 -0.393297 -0.197502 -0.00879543 0.0586535 0.0695662 0.0901371 0.138197 0.15055 0.0747901 -0.0196665 0.020098 0.0394331 0.0567036 0.0700719 0.0249306 -0.0571362 -0.174081 -0.21001 -0.148427 -0.0855342 -0.0924706 -0.101191 -0.20922 -0.114566 -0.00178845 0.0510173 0.101427 0.129932 0.114631 0.13188 0.194273 0.179683 0.111744 0.012398 -0.09472 -0.194442 -0.253377 -0.24569 -0.233954 -0.229396 -0.206981 -0.230463 -0.2694 -0.292351 -0.320395 -0.351939 -0.310091 -0.307149 -0.342169 -0.373104 -0.38091 -0.340889 -0.330664 -0.318056 -0.294433 -0.321165 -0.294549 -0.381532 -0.514741 -0.562179 -0.656771 -0.6811 -0.604407
260.555 0.00025 0.153853 -0.0402071 -0.181496 -0.257391 -0.242372 -0.267587 -0.338794 -0.439727 -0.477048 -0.464126 -0.49554 -0.549505 -0.448033 -0.371854 -0.334214 -0.285154 -0.294718 -0.260204 -0.240045 -0.128461 -0.0862636 -0.0856675 -0.105359 -0.156276 -0.197509 -0.235343 -0.190574 -0.169515 -0.1515 -0.121674 -0.11057 -0.185472 -0.260346 -0.241721 -0.300698 -0.320502 -0.339762 -0.391876 -0.214436 -0.0128091 0.0591053 0.0690332 0.0912847 0.140874 0.152853 0.0746618 -0.0219544 0.0189939 0.0426531 0.0622132 0.0667945 0.0254803 -0.0556795 -0.169442 -0.209333 -0.155822 -0.0880422 -0.0851274 -0.0890651 -0.21394 -0.121802 -0.00600691 0.047159 0.099593 0.131398 0.11679 0.134054 0.19212 0.17652 0.111208 0.0146727 -0.0898172 -0.186827 -0.252077 -0.247007 -0.233185 -0.230717 -0.209602 -0.231972 -0.268211 -0.288914 -0.312961 -0.349072 -0.311061 -0.306229 -0.341629 -0.372984 -0.379044 -0.339056 -0.330607 -0.318184 -0.299064 -0.32667 -0.292531 -0.378816 -0.516155 -0.565625 -0.659588 -0.682746 -0.604621
260.5575 0.00025 0.150709 -0.0374675 -0.174355 -0.258077 -0.250913 -0.269583 -0.338686 -0.434654 -0.463547 -0.457539 -0.496344 -0.552835 -0.448666 -0.368942 -0.344128 -0.294317 -0.296999 -0.26871 -0.243007 -0.127077 -0.092508 -0.088758 -0.10344 -0.156436 -0.192259 -0.230595 -0.189663 -0.167784 -0.148416 -0.123015 -0.109186 -0.177542 -0.25561 -0.235353 -0.294679 -0.311406 -0.324146 -0.387544 -0.231199 -0.0179612 0.0589903 0.0683622 0.0930508 0.143008 0.154491 0.0744308 -0.0234619 0.0182023 0.0457431 0.0675366 0.0631879 0.0256749 -0.0539134 -0.164028 -0.209351 -0.163975 -0.0912688 -0.0777331 -0.0765169 -0.216882 -0.129085 -0.0112676 0.0429685 0.0972976 0.13294 0.11944 0.136847 0.190037 0.172847 0.110502 0.0167339 -0.0849762 -0.179136 -0.250587 -0.248393 -0.232546 -0.232002 -0.212377 -0.233247 -0.266971 -0.285541 -0.30576 -0.345795 -0.312278 -0.305428 -0.341153 -0.37256 -0.376844 -0.337266 -0.330304 -0.318407 -0.303258 -0.3324 -0.290887 -0.376132 -0.517257 -0.569039 -0.662414 -0.684435 -0.604866
260.56 0.00025 0.147651 -0.0339054 -0.166685 -0.258374 -0.259138 -0.272711 -0.339282 -0.428924 -0.449697 -0.45089 -0.495608 -0.556378 -0.450012 -0.364676 -0.352804 -0.304705 -0.299256 -0.277124 -0.24589 -0.126155 -0.0981909 -0.0924849 -0.101667 -0.156369 -0.187063 -0.22585 -0.188928 -0.165881 -0.145191 -0.124041 -0.108227 -0.170241 -0.250253 -0.229887 -0.288452 -0.30287 -0.309084 -0.380275 -0.247225 -0.0242341 0.058165 0.0674943 0.0955963 0.144512 0.155476 0.0741228 -0.0242063 0.0178649 0.0487816 0.0725606 0.0593743 0.0254176 -0.0518029 -0.157977 -0.210082 -0.172668 -0.0951726 -0.070459 -0.0639165 -0.217778 -0.136314 -0.0174823 0.0384259 0.0944761 0.134435 0.122521 0.14029 0.188137 0.16865 0.109649 0.0185662 -0.0801706 -0.171488 -0.248839 -0.249866 -0.232057 -0.233191 -0.215329 -0.234307 -0.265691 -0.28215 -0.298869 -0.342131 -0.313621 -0.30477 -0.340724 -0.37189 -0.374259 -0.335529 -0.329711 -0.318746 -0.307026 -0.338225 -0.289639 -0.373516 -0.518031 -0.572436 -0.665247 -0.686158 -0.605134
260.5625 0.00025 0.144762 -0.0295575 -0.158532 -0.258308 -0.266853 -0.276806 -0.340615 -0.422531 -0.435779 -0.444194 -0.493447 -0.559791 -0.451955 -0.359689 -0.359867 -0.31584 -0.301806 -0.285139 -0.248805 -0.125856 -0.10318 -0.0968154 -0.100147 -0.156083 -0.181986 -0.221041 -0.188362 -0.163763 -0.14196 -0.124658 -0.107587 -0.163622 -0.24442 -0.225366 -0.282014 -0.294943 -0.294509 -0.370244 -0.261857 -0.0317211 0.056452 0.0662723 0.0988187 0.145453 0.155785 0.0738081 -0.0242827 0.0180707 0.0518178 0.0771692 0.0554253 0.0246407 -0.0493312 -0.151501 -0.211361 -0.181643 -0.0997095 -0.0635315 -0.0516677 -0.216466 -0.143334 -0.0244761 0.0334987 0.0911655 0.135768 0.126004 0.144397 0.186508 0.16394 0.108664 0.0202275 -0.0754102 -0.163999 -0.246796 -0.25145 -0.231733 -0.234262 -0.218478 -0.235215 -0.264375 -0.278672 -0.292343 -0.338148 -0.314969 -0.304299 -0.34035 -0.371066 -0.371272 -0.333847 -0.328815 -0.319193 -0.31043 -0.344066 -0.28883 -0.371001 -0.518476 -0.575809 -0.668085 -0.687921 -0.605432
260.565 0.00025 0.141935 -0.0245923 -0.149927 -0.257988 -0.273865 -0.281736 -0.342712 -0.415502 -0.42215 -0.437355 -0.490035 -0.562675 -0.454568 -0.354483 -0.365155 -0.327144 -0.305071 -0.292445 -0.251864 -0.126315 -0.107457 -0.101626 -0.0990285 -0.155555 -0.177049 -0.216123 -0.187955 -0.161485 -0.138795 -0.12482 -0.107161 -0.157762 -0.238188 -0.22169 -0.275393 -0.2877 -0.280528 -0.357794 -0.274435 -0.0404625 0.0536518 0.0645922 0.102704 0.145826 0.155361 0.0735787 -0.0238165 0.0189024 0.0549458 0.0813267 0.0514429 0.0232999 -0.0465032 -0.144865 -0.212992 -0.190785 -0.104771 -0.0571715 -0.0400226 -0.212897 -0.149974 -0.0321181 0.0281259 0.087426 0.136803 0.129811 0.149163 0.185198 0.158758 0.10756 0.0217509 -0.0706984 -0.156774 -0.244431 -0.253158 -0.231578 -0.235211 -0.221801 -0.236031 -0.263038 -0.275035 -0.286206 -0.333896 -0.316181 -0.304054 -0.34002 -0.370167 -0.367892 -0.33218 -0.327594 -0.319721 -0.313522 -0.349789 -0.288467 -0.368606 -0.518584 -0.579146 -0.670922 -0.689731 -0.605748
260.5675 0.00025 0.139166 -0.0191259 -0.140916 -0.257472 -0.280053 -0.287231 -0.345634 -0.40789 -0.409104 -0.43034 -0.485633 -0.564608 -0.458074 -0.349415 -0.36865 -0.337996 -0.30929 -0.298806 -0.255135 -0.127582 -0.110993 -0.106723 -0.0985269 -0.154758 -0.172303 -0.211146 -0.187641 -0.159128 -0.135715 -0.124496 -0.106852 -0.152727 -0.2317 -0.218773 -0.268583 -0.281084 -0.267083 -0.34334 -0.284243 -0.0505556 0.0497767 0.0623395 0.107106 0.145755 0.154164 0.0734673 -0.0228578 0.0204102 0.0582198 0.0850411 0.0474778 0.0213977 -0.0434016 -0.138303 -0.214591 -0.200055 -0.110212 -0.0515888 -0.0292404 -0.207197 -0.156071 -0.0402572 0.0222738 0.0833199 0.137432 0.133824 0.154528 0.184266 0.153147 0.106359 0.0231677 -0.0660179 -0.149897 -0.241742 -0.254972 -0.231604 -0.236041 -0.225227 -0.236826 -0.261697 -0.271205 -0.280456 -0.329474 -0.317134 -0.30405 -0.339683 -0.369252 -0.364162 -0.33047 -0.326028 -0.320288 -0.316396 -0.355328 -0.288566 -0.366369 -0.518379 -0.582451 -0.673769 -0.691583 -0.606089
260.57 0.00025 0.136473 -0.0133372 -0.131649 -0.256894 -0.285355 -0.293117 -0.349379 -0.399794 -0.396872 -0.423118 -0.480506 -0.565374 -0.4628 -0.344835 -0.37048 -0.347929 -0.314514 -0.304106 -0.258733 -0.129785 -0.113912 -0.111922 -0.0988219 -0.153651 -0.167753 -0.206193 -0.187259 -0.156767 -0.132719 -0.123712 -0.106634 -0.148468 -0.225129 -0.216523 -0.261598 -0.275083 -0.25425 -0.327427 -0.290524 -0.0619319 0.0448474 0.0593791 0.111976 0.145318 0.152183 0.0735264 -0.0214497 0.0225764 0.0616651 0.0883711 0.0435646 0.0189674 -0.040098 -0.132042 -0.215839 -0.209378 -0.115948 -0.047007 -0.0194749 -0.19951 -0.161373 -0.0487428 0.0159667 0.0789027 0.137578 0.137959 0.160465 0.18374 0.147153 0.10508 0.0244984 -0.0613438 -0.143439 -0.238767 -0.256867 -0.231832 -0.236812 -0.228692 -0.237695 -0.260377 -0.267174 -0.275083 -0.32497 -0.31771 -0.304317 -0.339325 -0.368368 -0.360162 -0.328663 -0.324116 -0.320819 -0.319098 -0.360578 -0.289125 -0.364309 -0.51786 -0.585705 -0.676607 -0.693478 -0.606461
260.5725 0.00025 0.133862 -0.0074164 -0.122205 -0.256275 -0.289719 -0.299185 -0.353893 -0.391433 -0.385534 -0.41576 -0.474921 -0.564814 -0.468861 -0.341095 -0.370713 -0.356685 -0.320624 -0.3083 -0.262718 -0.132955 -0.116277 -0.117046 -0.100083 -0.152231 -0.163324 -0.201357 -0.186641 -0.154533 -0.129761 -0.122459 -0.10642 -0.144926 -0.218639 -0.214804 -0.254511 -0.269589 -0.242141 -0.310668 -0.29265 -0.0744848 0.0388586 0.0554602 0.117174 0.144628 0.149446 0.0736415 -0.0195924 0.0253959 0.0652947 0.0914151 0.0397479 0.0160215 -0.0367683 -0.126298 -0.216403 -0.218659 -0.121881 -0.0435588 -0.0108113 -0.190064 -0.165703 -0.0574771 0.00923394 0.074227 0.137245 0.142109 0.166825 0.183659 0.140854 0.103744 0.025769 -0.0566643 -0.137427 -0.235566 -0.258793 -0.232294 -0.237544 -0.232098 -0.238714 -0.259111 -0.262955 -0.270044 -0.320455 -0.317814 -0.304866 -0.338928 -0.367533 -0.356004 -0.326708 -0.32186 -0.321257 -0.321701 -0.36548 -0.290133 -0.36243 -0.517065 -0.588908 -0.679447 -0.695414 -0.606862