260.5025 0.00025 4.84045 5.91634 6.96121 7.35616 7.65455 7.82966 8.01533 8.18298 8.33008 8.43103 8.51142 8.59434 8.67763 8.7534 8.84213 8.93606 9.02145 9.09998 9.18313 9.27039 9.34848 9.41883 9.48967 9.55552 9.61426 9.66943 9.72251 9.76514 9.79417 9.81806 9.84605 9.87101 9.89639 9.92957 9.96187 9.99611 10.0249 10.0585 10.0938 10.1249 10.1549 10.1856 10.2149 10.2396 10.2599 10.2789 10.3001 10.3236 10.3568 10.3926 10.4192 10.4447 10.467 10.4897 10.5113 10.5361 10.5731 10.6079 10.6399 10.6783 10.7145 10.748 10.7755 10.8 10.8211 10.8404 10.8618 10.8766 10.8917 10.9085 10.9259 10.9476 10.9647 10.9866 11.0121 11.0388 11.0634 11.0912 11.1165 11.1338 11.1473 11.1557 11.1697 11.1825 11.188 11.1906 11.1913 11.1953 11.1973 11.2016 11.2077 11.2214 11.2305 11.2337 11.2398 11.2473 11.2488 11.2551 11.265 11.2769
260.505 0.00025 4.84019 5.91572 6.95997 7.35597 7.65394 7.82804 8.01425 8.18197 8.32932 8.43192 8.5124 8.59406 8.67702 8.7531 8.84208 8.93572 9.02019 9.09922 9.18267 9.26985 9.34836 9.41923 9.48976 9.55548 9.61408 9.66898 9.72227 9.765 9.79443 9.81809 9.84556 9.87057 9.89642 9.92973 9.96187 9.99629 10.025 10.0582 10.0936 10.1245 10.1546 10.1858 10.2152 10.2399 10.2599 10.2789 10.3008 10.3247 10.3576 10.3933 10.4198 10.4455 10.4679 10.4905 10.5122 10.5371 10.5738 10.6083 10.6402 10.6787 10.7148 10.7483 10.7758 10.8002 10.821 10.8402 10.8617 10.8767 10.8917 10.9081 10.9253 10.9473 10.9649 10.9867 11.0119 11.0384 11.063 11.0908 11.1165 11.1343 11.1478 11.156 11.1699 11.1828 11.1883 11.1908 11.1915 11.1955 11.1974 11.2017 11.2077 11.2215 11.2307 11.2337 11.2396 11.2473 11.249 11.2553 11.2652 11.277
260.5075 0.00025 4.83996 5.91512 6.9587 7.35569 7.6533 7.82658 8.0133 8.18096 8.32843 8.43262 8.51349 8.59385 8.67637 8.75286 8.84206 8.93535 9.01889 9.09848 9.18223 9.26934 9.34823 9.41959 9.48979 9.55543 9.61393 9.66855 9.72195 9.7648 9.79475 9.81814 9.84502 9.87012 9.8965 9.92988 9.96184 9.9965 10.025 10.0581 10.0935 10.124 10.1543 10.1859 10.2155 10.2402 10.26 10.2789 10.3015 10.3258 10.3585 10.394 10.4204 10.4462 10.4687 10.4913 10.5132 10.5383 10.5746 10.6087 10.6406 10.6792 10.7151 10.7486 10.7762 10.8004 10.821 10.8401 10.8615 10.8768 10.8918 10.9078 10.9247 10.9469 10.965 10.9868 11.0117 11.0381 11.0625 11.0905 11.1166 11.1347 11.1483 11.1563 11.1701 11.1831 11.1885 11.1909 11.1917 11.1958 11.1976 11.2017 11.2077 11.2216 11.231 11.2338 11.2395 11.2473 11.2492 11.2555 11.2654 11.2771
260.51 0.00025 4.83972 5.91455 6.95743 7.35534 7.65263 7.82528 8.01248 8.17996 8.32741 8.4331 8.51465 8.59372 8.67572 8.75267 8.84208 8.93492 9.01757 9.09778 9.18179 9.26886 9.34811 9.41991 9.48978 9.55538 9.61381 9.66812 9.72153 9.76456 9.79511 9.81822 9.84442 9.86967 9.89663 9.93 9.96178 9.99673 10.0251 10.0579 10.0934 10.1236 10.1539 10.186 10.2158 10.2405 10.26 10.2789 10.3022 10.3269 10.3594 10.3947 10.421 10.4469 10.4695 10.492 10.5142 10.5394 10.5753 10.609 10.6409 10.6796 10.7154 10.7489 10.7765 10.8005 10.821 10.84 10.8615 10.8769 10.8919 10.9074 10.9241 10.9465 10.9651 10.9869 11.0116 11.0378 11.0621 11.0901 11.1166 11.1352 11.1488 11.1566 11.1703 11.1833 11.1888 11.191 11.1918 11.1961 11.1978 11.2018 11.2077 11.2217 11.2312 11.2338 11.2394 11.2473 11.2494 11.2557 11.2656 11.2773
260.5125 0.00025 4.8395 5.91402 6.95618 7.35491 7.65189 7.82416 8.0118 8.17897 8.32625 8.43335 8.51586 8.59369 8.67509 8.75254 8.84212 8.93443 9.01623 9.0971 9.18136 9.2684 9.34799 9.42018 9.48972 9.55532 9.61373 9.66771 9.72102 9.76427 9.79551 9.81831 9.84377 9.86921 9.89679 9.9301 9.9617 9.997 10.0253 10.0579 10.0933 10.1231 10.1535 10.1861 10.216 10.2408 10.26 10.2788 10.3029 10.3281 10.3604 10.3954 10.4216 10.4476 10.4702 10.4927 10.5152 10.5407 10.576 10.6094 10.6413 10.6801 10.7157 10.7491 10.7767 10.8007 10.821 10.8399 10.8614 10.877 10.892 10.9071 10.9235 10.9461 10.9651 10.987 11.0114 11.0375 11.0617 11.0898 11.1166 11.1356 11.1494 11.157 11.1705 11.1836 11.189 11.1911 11.192 11.1964 11.198 11.2019 11.2077 11.2218 11.2314 11.2339 11.2392 11.2472 11.2496 11.256 11.2658 11.2774
260.515 0.00025 4.83929 5.91351 6.95496 7.3544 7.65109 7.8232 8.01125 8.17799 8.32497 8.43336 8.51709 8.59376 8.6745 8.75247 8.84217 8.93386 9.01488 9.09645 9.18094 9.26798 9.34787 9.4204 9.48961 9.55525 9.61369 9.6673 9.72042 9.76393 9.79594 9.81841 9.84309 9.86876 9.89698 9.93016 9.96161 9.99729 10.0254 10.0579 10.0932 10.1226 10.1532 10.1861 10.2162 10.2411 10.2601 10.2788 10.3035 10.3293 10.3614 10.3961 10.4222 10.4483 10.4709 10.4934 10.5162 10.542 10.5768 10.6097 10.6417 10.6806 10.716 10.7494 10.777 10.8008 10.8209 10.8399 10.8613 10.8771 10.8921 10.9068 10.923 10.9456 10.9651 10.9871 11.0113 11.0372 11.0613 11.0894 11.1165 11.136 11.1499 11.1574 11.1707 11.1838 11.1893 11.1912 11.1922 11.1966 11.1982 11.202 11.2076 11.2218 11.2315 11.234 11.2391 11.2472 11.2497 11.2562 11.266 11.2775
260.5175 0.00025 4.83908 5.91302 6.9538 7.35381 7.65021 7.82239 8.01084 8.17704 8.32357 8.43314 8.51829 8.59395 8.67397 8.75247 8.84222 8.93321 9.01355 9.09583 9.18052 9.26759 9.34773 9.42057 9.48946 9.55518 9.61367 9.6669 9.71973 9.76356 9.79639 9.81851 9.84239 9.86834 9.89719 9.93018 9.9615 9.9976 10.0256 10.0579 10.0932 10.1222 10.1528 10.186 10.2164 10.2414 10.2601 10.2788 10.3042 10.3306 10.3625 10.3969 10.4227 10.4489 10.4715 10.494 10.5172 10.5433 10.5775 10.6099 10.6421 10.6811 10.7163 10.7496 10.7772 10.8008 10.8209 10.8399 10.8613 10.8772 10.8922 10.9066 10.9224 10.9451 10.965 10.9871 11.0112 11.037 11.0609 11.0891 11.1165 11.1364 11.1503 11.1578 11.1709 11.1841 11.1895 11.1913 11.1923 11.1969 11.1985 11.2022 11.2076 11.2218 11.2317 11.2341 11.239 11.2472 11.2499 11.2564 11.2662 11.2776
260.52 0.00025 4.83887 5.91255 6.95271 7.35315 7.64924 7.82175 8.01056 8.1761 8.32206 8.43269 8.51944 8.59424 8.67351 8.75254 8.84227 8.93247 9.01224 9.09523 9.18011 9.26723 9.34758 9.42069 9.48928 9.5551 9.61368 9.66651 9.71897 9.76315 9.79684 9.8186 9.84167 9.86794 9.89741 9.93015 9.96138 9.99794 10.0258 10.058 10.0932 10.1218 10.1524 10.186 10.2165 10.2417 10.2602 10.2787 10.3049 10.3318 10.3636 10.3977 10.4233 10.4495 10.4721 10.4946 10.5183 10.5446 10.5782 10.6102 10.6425 10.6816 10.7166 10.7499 10.7774 10.8009 10.8209 10.8399 10.8613 10.8773 10.8924 10.9064 10.9218 10.9445 10.9649 10.9871 11.011 11.0368 11.0606 11.0888 11.1164 11.1367 11.1508 11.1581 11.1711 11.1843 11.1898 11.1915 11.1924 11.1971 11.1987 11.2024 11.2076 11.2218 11.2319 11.2342 11.2389 11.2471 11.2501 11.2566 11.2664 11.2777
260.5225 0.00025 4.83865 5.91209 6.9517 7.35242 7.64818 7.82124 8.0104 8.17519 8.32045 8.43203 8.52053 8.59465 8.67314 8.75268 8.84232 8.93163 9.01096 9.09466 9.17971 9.26689 9.34741 9.42077 9.48907 9.55501 9.6137 9.66613 9.71814 9.76271 9.79729 9.81868 9.84096 9.8676 9.89763 9.93008 9.96126 9.9983 10.0261 10.0581 10.0932 10.1214 10.1521 10.1859 10.2166 10.242 10.2603 10.2787 10.3055 10.3331 10.3647 10.3985 10.4239 10.4501 10.4726 10.4952 10.5194 10.546 10.5789 10.6104 10.6429 10.6821 10.7169 10.7502 10.7776 10.8009 10.8209 10.8399 10.8613 10.8774 10.8926 10.9062 10.9213 10.944 10.9648 10.9871 11.0109 11.0366 11.0603 11.0884 11.1163 11.137 11.1513 11.1586 11.1713 11.1845 11.19 11.1916 11.1926 11.1973 11.199 11.2026 11.2077 11.2218 11.232 11.2343 11.2388 11.2471 11.2503 11.2569 11.2666 11.2778
260.525 0.00025 4.83844 5.91166 6.95077 7.35163 7.64703 7.82088 8.01035 8.17429 8.31875 8.4312 8.52152 8.59517 8.67287 8.75289 8.84235 8.9307 9.00972 9.09411 9.17931 9.26658 9.34721 9.42082 9.48885 9.5549 9.61372 9.66575 9.71726 9.76223 9.79772 9.81872 9.84026 9.86731 9.89784 9.92997 9.96113 9.99869 10.0264 10.0582 10.0933 10.1211 10.1518 10.1858 10.2166 10.2422 10.2604 10.2788 10.3062 10.3343 10.3658 10.3993 10.4245 10.4506 10.4731 10.4957 10.5205 10.5474 10.5796 10.6107 10.6434 10.6826 10.7172 10.7504 10.7778 10.801 10.8208 10.8399 10.8613 10.8775 10.8927 10.906 10.9208 10.9435 10.9646 10.9871 11.0108 11.0365 11.0601 11.0881 11.1162 11.1372 11.1518 11.159 11.1715 11.1847 11.1902 11.1917 11.1927 11.1975 11.1993 11.2029 11.2077 11.2217 11.2321 11.2345 11.2387 11.247 11.2504 11.2571 11.2669 11.2779
260.5275 0.00025 4.83821 5.91123 6.94993 7.35078 7.6458 7.82065 8.01039 8.17341 8.31697 8.4302 8.5224 8.59578 8.6727 8.75317 8.84237 8.92969 9.00853 9.09357 9.17892 9.2663 9.34698 9.42083 9.48862 9.55477 9.61374 9.66538 9.71634 9.76173 9.79812 9.81873 9.83958 9.86709 9.89804 9.9298 9.96101 9.99909 10.0267 10.0583 10.0934 10.1208 10.1515 10.1856 10.2166 10.2424 10.2605 10.2788 10.3069 10.3355 10.3669 10.4002 10.4252 10.4511 10.4736 10.4963 10.5216 10.5487 10.5802 10.611 10.6438 10.6831 10.7175 10.7507 10.778 10.801 10.8208 10.84 10.8613 10.8776 10.8929 10.9059 10.9204 10.9429 10.9644 10.987 11.0106 11.0363 11.0598 11.0879 11.116 11.1375 11.1522 11.1594 11.1718 11.1849 11.1904 11.1918 11.1928 11.1977 11.1995 11.2031 11.2078 11.2217 11.2323 11.2346 11.2386 11.2469 11.2506 11.2574 11.2671 11.278
260.53 0.00025 4.83798 5.91082 6.94918 7.34987 7.6445 7.82055 8.0105 8.17252 8.31512 8.42909 8.52316 8.59647 8.67265 8.75351 8.84237 8.92861 9.0074 9.09304 9.17852 9.26603 9.34671 9.42081 9.4884 9.55461 9.61374 9.66502 9.71539 9.76119 9.79847 9.81869 9.83893 9.86695 9.89823 9.92958 9.9609 9.99951 10.027 10.0585 10.0934 10.1206 10.1512 10.1855 10.2166 10.2426 10.2606 10.279 10.3075 10.3367 10.3681 10.4011 10.4258 10.4516 10.4741 10.4968 10.5227 10.55 10.5809 10.6113 10.6443 10.6836 10.7178 10.7509 10.7782 10.801 10.8207 10.84 10.8614 10.8776 10.893 10.9058 10.9201 10.9425 10.9641 10.9868 11.0104 11.0362 11.0596 11.0876 11.1159 11.1377 11.1526 11.1598 11.172 11.1851 11.1906 11.192 11.1929 11.1979 11.1998 11.2034 11.2078 11.2216 11.2323 11.2348 11.2386 11.2469 11.2507 11.2576 11.2673 11.2782
260.5325 0.00025 4.83773 5.91042 6.94852 7.34891 7.64314 7.82056 8.01067 8.17163 8.31321 8.42788 8.52381 8.59723 8.67271 8.7539 8.84237 8.92748 9.00632 9.09249 9.17813 9.26579 9.34639 9.42077 9.48819 9.55443 9.61371 9.66466 9.71443 9.76063 9.79876 9.8186 9.83832 9.86689 9.89839 9.92933 9.9608 9.99995 10.0274 10.0586 10.0935 10.1204 10.151 10.1853 10.2165 10.2427 10.2608 10.2791 10.3082 10.3379 10.3693 10.402 10.4264 10.4521 10.4746 10.4974 10.5238 10.5513 10.5815 10.6117 10.6449 10.6841 10.7181 10.7512 10.7783 10.801 10.8207 10.8401 10.8614 10.8777 10.8931 10.9057 10.9198 10.942 10.9638 10.9866 11.0102 11.0361 11.0594 11.0873 11.1157 11.1378 11.153 11.1602 11.1723 11.1853 11.1908 11.1921 11.193 11.1981 11.2001 11.2038 11.2079 11.2216 11.2324 11.2349 11.2385 11.2468 11.2509 11.2578 11.2675 11.2783
260.535 0.00025 4.83746 5.91003 6.94794 7.34791 7.64172 7.82068 8.01089 8.17072 8.31126 8.42662 8.52433 8.59802 8.67288 8.75434 8.84234 8.92631 9.0053 9.09194 9.17773 9.26558 9.34603 9.4207 9.48801 9.55422 9.61364 9.66429 9.71348 9.76003 9.79899 9.81846 9.83775 9.86691 9.89853 9.92903 9.96072 10.0004 10.0278 10.0587 10.0935 10.1203 10.1509 10.1852 10.2163 10.2428 10.2609 10.2793 10.3089 10.3391 10.3704 10.4029 10.427 10.4525 10.475 10.498 10.5249 10.5525 10.5821 10.612 10.6454 10.6846 10.7184 10.7514 10.7784 10.8011 10.8207 10.8401 10.8615 10.8778 10.8931 10.9056 10.9196 10.9416 10.9636 10.9864 11.01 11.036 11.0593 11.0871 11.1156 11.138 11.1534 11.1607 11.1726 11.1855 11.191 11.1923 11.1931 11.1982 11.2004 11.2041 11.208 11.2215 11.2325 11.2351 11.2385 11.2467 11.251 11.2581 11.2677 11.2784
260.5375 0.00025 4.83719 5.90965 6.94746 7.34688 7.64025 7.8209 8.01112 8.16978 8.30927 8.42532 8.52473 8.59882 8.67317 8.75482 8.84231 8.92512 9.00435 9.09137 9.17731 9.26538 9.34563 9.42061 9.48787 9.55398 9.61352 9.66392 9.71255 9.75941 9.79913 9.81827 9.83722 9.86701 9.89865 9.9287 9.96064 10.0008 10.0283 10.0589 10.0935 10.1203 10.1508 10.185 10.2162 10.2428 10.2611 10.2796 10.3096 10.3402 10.3716 10.4039 10.4276 10.453 10.4755 10.4986 10.526 10.5537 10.5827 10.6125 10.646 10.6851 10.7187 10.7516 10.7786 10.8011 10.8207 10.8402 10.8615 10.8779 10.8932 10.9056 10.9194 10.9412 10.9633 10.9862 11.0097 11.0358 11.0591 11.0869 11.1154 11.1381 11.1537 11.1611 11.1729 11.1857 11.1912 11.1925 11.1932 11.1983 11.2007 11.2045 11.2082 11.2214 11.2325 11.2353 11.2384 11.2466 11.2511 11.2583 11.2679 11.2785
260.54 0.00025 4.83689 5.90927 6.94708 7.34582 7.63872 7.8212 8.01137 8.1688 8.30727 8.42403 8.52503 8.59961 8.67355 8.75536 8.84226 8.92395 9.00345 9.09077 9.17687 9.2652 9.34518 9.4205 9.48775 9.55372 9.61335 9.66354 9.71166 9.75875 9.79919 9.81802 9.83675 9.86719 9.89875 9.92835 9.96059 10.0013 10.0287 10.059 10.0935 10.1202 10.1508 10.1849 10.216 10.2427 10.2612 10.2799 10.3103 10.3413 10.3728 10.4048 10.4282 10.4534 10.4759 10.4992 10.527 10.5548 10.5832 10.613 10.6466 10.6855 10.719 10.7518 10.7787 10.8012 10.8207 10.8402 10.8616 10.8779 10.8932 10.9055 10.9192 10.9409 10.9631 10.9859 11.0095 11.0357 11.059 11.0867 11.1153 11.1381 11.154 11.1616 11.1732 11.1858 11.1914 11.1926 11.1933 11.1984 11.2011 11.2048 11.2083 11.2213 11.2325 11.2355 11.2384 11.2465 11.2512 11.2586 11.2682 11.2786
260.5425 0.00025 4.83657 5.90889 6.9468 7.34475 7.63713 7.82157 8.01163 8.16777 8.30526 8.42274 8.52523 8.60036 8.67403 8.75594 8.8422 8.92281 9.00263 9.09014 9.1764 9.26502 9.3447 9.42036 9.48768 9.55344 9.61312 9.66314 9.7108 9.75807 9.79914 9.81773 9.83632 9.86743 9.89884 9.92799 9.96055 10.0017 10.0292 10.0592 10.0934 10.1203 10.1508 10.1849 10.2158 10.2426 10.2614 10.2803 10.311 10.3424 10.3739 10.4058 10.4288 10.4538 10.4764 10.4998 10.5281 10.5558 10.5838 10.6135 10.6472 10.686 10.7193 10.7519 10.7788 10.8013 10.8207 10.8402 10.8616 10.878 10.8932 10.9054 10.9191 10.9407 10.9628 10.9857 11.0092 11.0356 11.0589 11.0865 11.1151 11.1382 11.1543 11.162 11.1735 11.186 11.1915 11.1928 11.1934 11.1985 11.2014 11.2052 11.2085 11.2212 11.2325 11.2356 11.2384 11.2464 11.2514 11.2588 11.2684 11.2788
260.545 0.00025 4.83623 5.90852 6.94663 7.34368 7.6355 7.82199 8.01187 8.16669 8.30326 8.42147 8.52535 8.60105 8.67458 8.75658 8.84214 8.92173 9.00186 9.08947 9.1759 9.26486 9.34419 9.42019 9.48764 9.55314 9.61282 9.66272 9.71 9.75736 9.79899 9.81739 9.83595 9.86773 9.89891 9.92763 9.96054 10.0021 10.0296 10.0593 10.0934 10.1203 10.1509 10.1848 10.2156 10.2425 10.2615 10.2807 10.3118 10.3434 10.3751 10.4068 10.4295 10.4543 10.4769 10.5005 10.5291 10.5567 10.5843 10.614 10.6478 10.6864 10.7196 10.752 10.7789 10.8014 10.8208 10.8403 10.8616 10.878 10.8931 10.9053 10.9191 10.9405 10.9626 10.9854 11.0088 11.0354 11.0588 11.0864 11.1149 11.1382 11.1545 11.1624 11.1739 11.1861 11.1916 11.193 11.1935 11.1986 11.2017 11.2056 11.2087 11.2212 11.2325 11.2358 11.2384 11.2463 11.2515 11.2591 11.2686 11.2789
260.5475 0.00025 4.83586 5.90815 6.94656 7.34264 7.63381 7.82244 8.01208 8.16555 8.30129 8.42023 8.5254 8.60167 8.67518 8.75727 8.84208 8.92072 9.00116 9.08878 9.17535 9.26469 9.34365 9.42 9.48763 9.55283 9.61245 9.66229 9.70926 9.75664 9.79872 9.81701 9.83563 9.86807 9.89897 9.92729 9.96056 10.0025 10.0301 10.0595 10.0933 10.1204 10.151 10.1848 10.2154 10.2423 10.2616 10.2812 10.3125 10.3444 10.3763 10.4078 10.4301 10.4547 10.4774 10.5012 10.5301 10.5576 10.5848 10.6147 10.6485 10.6869 10.72 10.7521 10.7789 10.8015 10.8209 10.8404 10.8616 10.878 10.8931 10.9052 10.919 10.9403 10.9625 10.9851 11.0085 11.0352 11.0586 11.0862 11.1148 11.1382 11.1548 11.1628 11.1742 11.1863 11.1917 11.1932 11.1937 11.1987 11.202 11.206 11.2089 11.2211 11.2325 11.236 11.2384 11.2462 11.2516 11.2593 11.2688 11.279
260.55 0.00025 4.83547 5.90778 6.94661 7.34163 7.63207 7.82289 8.01225 8.16437 8.29935 8.41902 8.52538 8.60222 8.67582 8.75801 8.84204 8.91979 9.00053 9.08805 9.17476 9.26451 9.34311 9.41978 9.48764 9.55252 9.61202 9.66182 9.70858 9.75589 9.79834 9.81659 9.83536 9.86845 9.89903 9.92698 9.96061 10.0028 10.0306 10.0596 10.0932 10.1205 10.1511 10.1848 10.2153 10.2421 10.2618 10.2817 10.3133 10.3454 10.3774 10.4087 10.4307 10.4552 10.4779 10.502 10.5311 10.5584 10.5853 10.6153 10.6491 10.6873 10.7203 10.7522 10.779 10.8017 10.8211 10.8404 10.8616 10.878 10.893 10.905 10.919 10.9402 10.9623 10.9848 11.0081 11.035 11.0585 11.0861 11.1146 11.1382 11.155 11.1632 11.1746 11.1864 11.1918 11.1935 11.1938 11.1988 11.2023 11.2064 11.2091 11.221 11.2324 11.2361 11.2385 11.2461 11.2517 11.2595 11.2691 11.2791
260.5525 0.00025 4.83506 5.90741 6.94678 7.34066 7.63027 7.82334 8.01235 8.16315 8.29747 8.41783 8.52531 8.60268 8.67647 8.75878 8.84202 8.91895 8.99996 9.0873 9.17411 9.26431 9.34256 9.41953 9.48767 9.5522 9.61152 9.66132 9.70795 9.75513 9.79784 9.81613 9.83513 9.86884 9.89908 9.92671 9.96069 10.0031 10.031 10.0598 10.0932 10.1206 10.1513 10.1848 10.2151 10.2419 10.2619 10.2823 10.3141 10.3464 10.3785 10.4097 10.4313 10.4556 10.4784 10.5027 10.5321 10.5591 10.5858 10.616 10.6498 10.6877 10.7206 10.7522 10.779 10.8019 10.8212 10.8405 10.8616 10.8779 10.8929 10.9049 10.9191 10.9402 10.9623 10.9846 11.0078 11.0347 11.0583 11.086 11.1145 11.1382 11.1551 11.1636 11.175 11.1865 11.1919 11.1937 11.194 11.1989 11.2025 11.2068 11.2093 11.221 11.2324 11.2363 11.2385 11.246 11.2517 11.2598 11.2693 11.2792
260.555 0.00025 4.83464 5.90704 6.94706 7.33977 7.62843 7.82375 8.01238 8.1619 8.29566 8.41666 8.52517 8.60308 8.67712 8.75959 8.84205 8.91822 8.99946 9.08654 9.1734 9.26408 9.34203 9.41924 9.4877 9.55188 9.61096 9.6608 9.70739 9.75435 9.79724 9.81565 9.83496 9.86923 9.89913 9.92649 9.96081 10.0034 10.0314 10.06 10.0931 10.1208 10.1515 10.1849 10.2149 10.2416 10.262 10.2829 10.3149 10.3473 10.3796 10.4106 10.4319 10.4561 10.479 10.5036 10.533 10.5598 10.5863 10.6167 10.6505 10.6882 10.721 10.7523 10.779 10.802 10.8215 10.8406 10.8615 10.8779 10.8927 10.9047 10.9191 10.9402 10.9622 10.9844 11.0074 11.0345 11.0582 11.0859 11.1143 11.1382 11.1553 11.164 11.1754 11.1867 11.192 11.1939 11.1941 11.199 11.2028 11.2072 11.2096 11.221 11.2323 11.2364 11.2385 11.2459 11.2518 11.26 11.2695 11.2794
260.5575 0.00025 4.83419 5.90668 6.94746 7.33894 7.62654 7.8241 8.01232 8.16063 8.29393 8.4155 8.52498 8.60342 8.67776 8.76039 8.84213 8.9176 8.99904 9.08576 9.17262 9.2638 9.34151 9.41893 9.48773 9.55156 9.61035 9.66024 9.70687 9.75357 9.79653 9.81515 9.83482 9.86962 9.89918 9.92634 9.96097 10.0036 10.0318 10.0602 10.093 10.1209 10.1517 10.185 10.2148 10.2413 10.2621 10.2835 10.3157 10.3482 10.3807 10.4115 10.4325 10.4566 10.4796 10.5044 10.5338 10.5603 10.5867 10.6175 10.6512 10.6886 10.7213 10.7522 10.7789 10.8023 10.8217 10.8408 10.8615 10.8778 10.8925 10.9045 10.9191 10.9402 10.9622 10.9842 11.0071 11.0342 11.058 11.0858 11.1142 11.1381 11.1554 11.1644 11.1758 11.1868 11.192 11.1941 11.1943 11.1991 11.2031 11.2076 11.2098 11.2209 11.2323 11.2366 11.2386 11.2458 11.2519 11.2603 11.2697 11.2795
260.56 0.00025 4.83372 5.90633 6.94799 7.3382 7.62462 7.82437 8.01215 8.15936 8.29229 8.41435 8.52473 8.6037 8.67837 8.76119 8.84229 8.91711 8.99869 9.08498 9.17176 9.26345 9.34102 9.4186 9.48774 9.55125 9.60969 9.65965 9.7064 9.75277 9.79572 9.81463 9.83473 9.86999 9.89922 9.92626 9.96117 10.0037 10.0321 10.0605 10.093 10.1211 10.152 10.1851 10.2147 10.2411 10.2622 10.2841 10.3165 10.3491 10.3818 10.4124 10.4331 10.4572 10.4802 10.5052 10.5346 10.5609 10.5872 10.6182 10.6519 10.6891 10.7217 10.7522 10.7789 10.8025 10.822 10.8409 10.8614 10.8777 10.8923 10.9043 10.9192 10.9402 10.9623 10.9841 11.0068 11.0339 11.0578 11.0856 11.114 11.1381 11.1555 11.1647 11.1763 11.187 11.192 11.1943 11.1945 11.1992 11.2034 11.208 11.2101 11.2209 11.2322 11.2367 11.2386 11.2457 11.252 11.2605 11.27 11.2796
260.5625 0.00025 4.83325 5.90599 6.94863 7.33755 7.62267 7.82453 8.01187 8.15808 8.29074 8.41319 8.52442 8.60394 8.67895 8.76196 8.84252 8.91674 8.99842 9.08422 9.17083 9.26304 9.34056 9.41825 9.48771 9.55094 9.60898 9.65903 9.70596 9.75195 9.79482 9.81411 9.83468 9.87034 9.89927 9.92627 9.96142 10.0038 10.0324 10.0607 10.0929 10.1214 10.1522 10.1852 10.2146 10.2408 10.2623 10.2848 10.3173 10.35 10.3828 10.4132 10.4338 10.4577 10.4808 10.5061 10.5354 10.5613 10.5877 10.619 10.6527 10.6896 10.722 10.7521 10.7788 10.8027 10.8223 10.8411 10.8614 10.8776 10.8921 10.9041 10.9192 10.9403 10.9623 10.984 11.0065 11.0336 11.0576 11.0855 11.1139 11.138 11.1555 11.165 11.1767 11.1872 11.192 11.1944 11.1947 11.1993 11.2037 11.2084 11.2103 11.2209 11.2322 11.2368 11.2387 11.2456 11.2521 11.2607 11.2702 11.2798
260.565 0.00025 4.83277 5.90567 6.94939 7.337 7.62071 7.82456 8.01147 8.15682 8.2893 8.41202 8.52404 8.60417 8.67949 8.76268 8.84284 8.91649 8.99824 9.08349 9.16982 9.26253 9.34015 9.41788 9.48765 9.55062 9.60824 9.65838 9.70556 9.75112 9.79385 9.81358 9.83466 9.87065 9.89931 9.92637 9.96171 10.0038 10.0326 10.061 10.0929 10.1216 10.1525 10.1853 10.2146 10.2406 10.2624 10.2855 10.3181 10.3509 10.3838 10.4141 10.4344 10.4583 10.4815 10.507 10.5361 10.5618 10.5882 10.6198 10.6534 10.6901 10.7224 10.752 10.7787 10.8029 10.8227 10.8412 10.8613 10.8775 10.8918 10.9039 10.9192 10.9403 10.9624 10.984 11.0062 11.0332 11.0573 11.0853 11.1137 11.1379 11.1556 11.1653 11.1771 11.1874 11.192 11.1946 11.1949 11.1994 11.2039 11.2088 11.2106 11.221 11.2321 11.237 11.2387 11.2455 11.2522 11.2609 11.2704 11.2799
260.5675 0.00025 4.83228 5.90536 6.95027 7.33653 7.61875 7.82445 8.01092 8.15558 8.28795 8.41084 8.5236 8.60439 8.67998 8.76334 8.84324 8.91637 8.99813 9.08279 9.16874 9.26193 9.33978 9.41751 9.48753 9.5503 9.60748 9.65772 9.70516 9.75026 9.79281 9.81306 9.83467 9.87092 9.89936 9.92656 9.96204 10.0037 10.0328 10.0613 10.093 10.1219 10.1528 10.1854 10.2146 10.2403 10.2625 10.2862 10.3189 10.3517 10.3848 10.4149 10.4351 10.459 10.4822 10.5078 10.5368 10.5622 10.5886 10.6205 10.6541 10.6906 10.7228 10.752 10.7786 10.8031 10.823 10.8414 10.8613 10.8773 10.8916 10.9037 10.9193 10.9404 10.9625 10.984 11.006 11.0329 11.0571 11.0852 11.1136 11.1379 11.1556 11.1656 11.1776 11.1876 11.192 11.1948 11.1951 11.1995 11.2042 11.2092 11.2109 11.221 11.2321 11.2371 11.2387 11.2454 11.2522 11.2611 11.2706 11.28
260.57 0.00025 4.83179 5.90509 6.95124 7.33617 7.61682 7.82417 8.01025 8.15437 8.2867 8.40962 8.52309 8.60462 8.68042 8.76393 8.84374 8.91638 8.99811 9.08215 9.16759 9.26122 9.33945 9.41715 9.48736 9.54997 9.60668 9.65704 9.70478 9.74938 9.79172 9.81255 9.83471 9.87115 9.89941 9.92684 9.96243 10.0036 10.0329 10.0617 10.0931 10.1222 10.1531 10.1856 10.2146 10.2401 10.2625 10.2869 10.3198 10.3525 10.3857 10.4156 10.4358 10.4597 10.4829 10.5087 10.5374 10.5625 10.5891 10.6213 10.6548 10.6911 10.7232 10.7519 10.7785 10.8033 10.8234 10.8416 10.8612 10.8772 10.8913 10.9034 10.9193 10.9405 10.9627 10.984 11.0059 11.0326 11.0568 11.085 11.1134 11.1378 11.1556 11.1659 11.178 11.1878 11.192 11.1949 11.1953 11.1997 11.2044 11.2096 11.2111 11.221 11.232 11.2372 11.2388 11.2453 11.2523 11.2614 11.2709 11.2801
260.5725 0.00025 4.83129 5.90486 6.9523 7.33588 7.61492 7.82372 8.00943 8.15318 8.28554 8.40836 8.52252 8.60487 8.68081 8.76443 8.84432 8.9165 8.99818 9.08158 9.16637 9.26038 9.33916 9.4168 9.48713 9.54961 9.60587 9.65634 9.70439 9.74846 9.79058 9.81205 9.83477 9.87133 9.89946 9.92722 9.96285 10.0034 10.0329 10.0621 10.0932 10.1225 10.1534 10.1857 10.2146 10.24 10.2626 10.2876 10.3206 10.3533 10.3866 10.4164 10.4365 10.4604 10.4837 10.5096 10.538 10.5628 10.5896 10.6221 10.6555 10.6916 10.7235 10.7518 10.7784 10.8035 10.8238 10.8419 10.8611 10.877 10.891 10.9032 10.9193 10.9406 10.9628 10.9841 11.0058 11.0324 11.0565 11.0848 11.1131 11.1376 11.1557 11.1661 11.1784 11.1881 11.192 11.195 11.1955 11.1998 11.2047 11.21 11.2114 11.2211 11.232 11.2373 11.2388 11.2453 11.2524 11.2616 11.2711 11.2803
260.575 0.00025 4.83081 5.90468 6.95343 7.33568 7.61309 7.82311 8.00849 8.15203 8.28445 8.40707 8.5219 8.60514 8.68115 8.76485 8.84498 8.91673 8.99832 9.08109 9.16511 9.25943 9.33891 9.41646 9.48684 9.54923 9.60504 9.65564 9.704 9.74751 9.78941 9.81158 9.83485 9.87147 9.89951 9.92767 9.96332 10.0031 10.0328 10.0624 10.0934 10.1229 10.1537 10.1858 10.2147 10.2398 10.2627 10.2883 10.3214 10.3542 10.3875 10.4172 10.4373 10.4611 10.4844 10.5104 10.5386 10.5632 10.5901 10.6228 10.6561 10.6922 10.7239 10.7517 10.7783 10.8037 10.8242 10.8421 10.8611 10.8768 10.8907 10.9029 10.9193 10.9408 10.963 10.9842 11.0057 11.0321 11.0562 11.0845 11.1129 11.1375 11.1557 11.1663 11.1788 11.1883 11.192 11.1951 11.1958 11.1999 11.205 11.2103 11.2117 11.2212 11.232 11.2374 11.2388 11.2452 11.2525 11.2618 11.2713 11.2804
260.5775 0.00025 4.83033 5.90454 6.95462 7.33554 7.61132 7.82233 8.00742 8.1509 8.28343 8.40573 8.52123 8.60545 8.68144 8.76519 8.8457 8.91705 8.99854 9.0807 9.16381 9.25835 9.33867 9.41615 9.4865 9.54881 9.6042 9.65493 9.70358 9.74652 9.78821 9.81113 9.83496 9.87158 9.89956 9.92821 9.96382 10.0028 10.0327 10.0628 10.0936 10.1233 10.154 10.1858 10.2148 10.2398 10.2627 10.2889 10.3222 10.3549 10.3883 10.4179 10.4381 10.4619 10.4852 10.5113 10.5391 10.5635 10.5906 10.6236 10.6568 10.6927 10.7243 10.7516 10.7782 10.8039 10.8245 10.8423 10.861 10.8766 10.8904 10.9027 10.9193 10.9409 10.9631 10.9843 11.0057 11.0319 11.056 11.0843 11.1126 11.1374 11.1557 11.1665 11.1792 11.1886 11.192 11.1952 11.196 11.2001 11.2052 11.2107 11.2119 11.2212 11.232 11.2375 11.2388 11.2451 11.2526 11.262 11.2715 11.2806
260.58 0.00025 4.82986 5.90446 6.95585 7.33545 7.60964 7.82139 8.00623 8.14979 8.28245 8.40435 8.52054 8.6058 8.68169 8.76546 8.84648 8.91747 8.99883 9.0804 9.1625 9.25715 9.33844 9.41587 9.4861 9.54835 9.60334 9.65423 9.70314 9.74549 9.78699 9.81071 9.83508 9.87165 9.89963 9.9288 9.96434 10.0024 10.0325 10.0632 10.094 10.1237 10.1543 10.1859 10.215 10.2398 10.2628 10.2896 10.3231 10.3557 10.3891 10.4186 10.4389 10.4627 10.4859 10.5121 10.5397 10.5638 10.5911 10.6243 10.6575 10.6932 10.7247 10.7516 10.7782 10.8041 10.8249 10.8425 10.861 10.8764 10.8901 10.9025 10.9193 10.941 10.9633 10.9844 11.0058 11.0317 11.0557 11.0841 11.1123 11.1372 11.1556 11.1667 11.1796 11.1889 11.192 11.1953 11.1963 11.2002 11.2055 11.2111 11.2122 11.2213 11.232 11.2376 11.2388 11.2451 11.2527 11.2622 11.2718 11.2807
260.5825 0.00025 4.82942 5.90442 6.9571 7.3354 7.60805 7.82032 8.00495 8.14869 8.2815 8.40291 8.51982 8.60618 8.68189 8.76567 8.84728 8.91796 8.9992 9.0802 9.1612 9.25583 9.33821 9.41561 9.48566 9.54784 9.60247 9.65352 9.70266 9.74442 9.78576 9.81032 9.83523 9.87169 9.8997 9.92945 9.9649 10.002 10.0322 10.0636 10.0944 10.1242 10.1546 10.1859 10.2151 10.2398 10.2629 10.2902 10.3238 10.3565 10.3898 10.4194 10.4398 10.4636 10.4867 10.5129 10.5402 10.5641 10.5916 10.6249 10.6581 10.6938 10.7251 10.7515 10.7781 10.8042 10.8252 10.8427 10.8609 10.8761 10.8898 10.9022 10.9193 10.9411 10.9635 10.9846 11.0058 11.0316 11.0555 11.0838 11.112 11.137 11.1556 11.1669 11.1799 11.1892 11.192 11.1954 11.1965 11.2004 11.2057 11.2115 11.2125 11.2214 11.232 11.2377 11.2388 11.245 11.2527 11.2624 11.272 11.2808
260.585 0.00025 4.829 5.90443 6.95837 7.33536 7.60657 7.81913 8.00358 8.14759 8.28057 8.40142 8.5191 8.60658 8.68207 8.76583 8.84811 8.91851 8.99964 9.0801 9.15991 9.25442 9.33795 9.41539 9.48519 9.54728 9.60157 9.65281 9.70215 9.74331 9.78452 9.80995 9.83539 9.87171 9.89979 9.93014 9.96546 10.0016 10.0318 10.064 10.0949 10.1247 10.1549 10.186 10.2153 10.2399 10.263 10.2907 10.3246 10.3572 10.3905 10.4201 10.4408 10.4645 10.4875 10.5137 10.5407 10.5644 10.592 10.6256 10.6587 10.6943 10.7255 10.7515 10.7781 10.8044 10.8255 10.8429 10.8608 10.8759 10.8895 10.902 10.9192 10.9413 10.9637 10.9847 11.006 11.0315 11.0553 11.0836 11.1116 11.1367 11.1556 11.1671 11.1802 11.1895 11.192 11.1955 11.1968 11.2005 11.206 11.2119 11.2127 11.2215 11.232 11.2377 11.2388 11.2449 11.2528 11.2625 11.2722 11.281
260.5875 0.00025 4.82861 5.9045 6.95962 7.33534 7.60518 7.81784 8.00214 8.14649 8.27964 8.3999 8.51838 8.607 8.68223 8.76596 8.84893 8.91911 9.00015 9.0801 9.15867 9.25293 9.33764 9.41518 9.48469 9.54665 9.60066 9.6521 9.7016 9.74217 9.78329 9.80961 9.83556 9.87172 9.8999 9.93084 9.96604 10.0012 10.0314 10.0644 10.0954 10.1252 10.1552 10.186 10.2155 10.2401 10.2632 10.2913 10.3253 10.3579 10.3912 10.4209 10.4418 10.4654 10.4882 10.5144 10.5412 10.5647 10.5925 10.6262 10.6594 10.6949 10.7258 10.7515 10.7782 10.8046 10.8258 10.843 10.8607 10.8756 10.8892 10.9018 10.9192 10.9414 10.9639 10.9849 11.0061 11.0314 11.0551 11.0834 11.1112 11.1364 11.1556 11.1673 11.1805 11.1898 11.192 11.1956 11.197 11.2007 11.2062 11.2123 11.213 11.2216 11.2321 11.2378 11.2388 11.2449 11.2529 11.2627 11.2724 11.2811
260.59 0.00025 4.82824 5.90462 6.96085 7.3353 7.60391 7.81648 8.00064 8.14538 8.27869 8.39834 8.51765 8.60743 8.68238 8.76607 8.84974 8.91975 9.00072 9.08019 9.15749 9.25138 9.33728 9.41498 9.48418 9.54596 9.59972 9.65139 9.70101 9.74101 9.78205 9.80929 9.83575 9.87173 9.90002 9.93155 9.96661 10.0007 10.0309 10.0647 10.0961 10.1258 10.1555 10.186 10.2156 10.2403 10.2634 10.2918 10.326 10.3586 10.3918 10.4216 10.4428 10.4663 10.489 10.5151 10.5416 10.5651 10.5929 10.6268 10.66 10.6954 10.7262 10.7516 10.7783 10.8048 10.826 10.8431 10.8606 10.8753 10.8889 10.9016 10.9191 10.9415 10.9641 10.985 11.0062 11.0313 11.055 11.0832 11.1107 11.1361 11.1555 11.1674 11.1808 11.19 11.192 11.1956 11.1973 11.2008 11.2065 11.2126 11.2133 11.2217 11.2321 11.2379 11.2387 11.2449 11.2531 11.2629 11.2726 11.2813
260.5925 0.00025 4.82791 5.90479 6.96204 7.33524 7.60274 7.81506 7.99911 8.14424 8.27772 8.39677 8.51693 8.60785 8.68255 8.76617 8.85051 8.92043 9.00135 9.08035 9.15639 9.2498 9.33684 9.41479 9.48367 9.54522 9.59876 9.65066 9.70037 9.73981 9.78082 9.80898 9.83595 9.87175 9.90017 9.93224 9.96716 10.0003 10.0304 10.0651 10.0968 10.1265 10.1558 10.186 10.2158 10.2406 10.2636 10.2924 10.3267 10.3593 10.3924 10.4223 10.4439 10.4673 10.4897 10.5158 10.5421 10.5655 10.5934 10.6273 10.6606 10.696 10.7266 10.7516 10.7784 10.805 10.8262 10.8432 10.8605 10.875 10.8887 10.9014 10.9191 10.9417 10.9643 10.9852 11.0064 11.0313 11.0549 11.083 11.1103 11.1357 11.1554 11.1676 11.181 11.1903 11.192 11.1957 11.1976 11.201 11.2067 11.213 11.2135 11.2219 11.2322 11.238 11.2387 11.2448 11.2532 11.2631 11.2728 11.2814