260.5025 0.00025 0.368551 0.647057 0.926852 0.772758 0.710233 0.655666 0.6036 0.559971 0.540808 0.512729 0.500515 0.45743 0.418762 0.416157 0.402991 0.375069 0.34345 0.329654 0.323832 0.312503 0.29648 0.284924 0.275642 0.267926 0.257543 0.238492 0.229075 0.229819 0.229925 0.232847 0.228329 0.21768 0.204157 0.198873 0.20073 0.20262 0.198259 0.19157 0.179729 0.170399 0.166681 0.159497 0.155824 0.151603 0.144976 0.142505 0.141584 0.140052 0.138299 0.135744 0.132663 0.132001 0.133922 0.135681 0.128995 0.12821 0.124142 0.120551 0.120293 0.120773 0.120644 0.119315 0.120146 0.122129 0.120898 0.120612 0.118435 0.1167 0.119151 0.116377 0.113996 0.114252 0.120279 0.12754 0.135868 0.139753 0.133926 0.125963 0.119518 0.118446 0.117441 0.113844 0.111113 0.10772 0.104305 0.0975964 0.0905239 0.0843318 0.0804217 0.0772396 0.0721819 0.0684388 0.0676175 0.06867 0.0746507 0.0758418 0.0779743 0.08216 0.0916888 0.116946
260.505 0.00025 0.368723 0.646138 0.925421 0.773791 0.70926 0.655442 0.604209 0.560498 0.541583 0.511279 0.499397 0.458803 0.418784 0.416671 0.404115 0.376298 0.344461 0.33043 0.324251 0.312633 0.296452 0.284323 0.274566 0.267388 0.257598 0.23858 0.228419 0.228717 0.228713 0.231799 0.227589 0.216615 0.203467 0.198533 0.200206 0.201764 0.197792 0.191655 0.1798 0.170192 0.166382 0.158782 0.15491 0.150964 0.144872 0.142482 0.141148 0.13946 0.138065 0.135603 0.132593 0.132136 0.134199 0.135388 0.128302 0.128014 0.124566 0.120583 0.119975 0.120725 0.120841 0.119534 0.120259 0.121886 0.120485 0.120484 0.118473 0.116579 0.119243 0.116403 0.113723 0.113752 0.1199 0.127266 0.13576 0.140044 0.134413 0.126182 0.119542 0.118443 0.117507 0.114065 0.111445 0.107838 0.104313 0.0975095 0.0904554 0.0842634 0.0803329 0.077268 0.0723315 0.0684707 0.0674606 0.0685503 0.0747266 0.0758972 0.0778888 0.0820052 0.0915528 0.116853
260.5075 0.00025 0.368863 0.645192 0.924059 0.77514 0.708195 0.654979 0.604876 0.560991 0.54252 0.509955 0.498051 0.460038 0.418909 0.41716 0.405258 0.377497 0.345509 0.331221 0.324692 0.312808 0.296531 0.28374 0.273467 0.26679 0.257617 0.238728 0.22785 0.227713 0.227509 0.230668 0.226784 0.215604 0.202736 0.198223 0.199703 0.200889 0.197313 0.191622 0.179873 0.169977 0.166073 0.158083 0.153986 0.150294 0.144772 0.142504 0.140733 0.13885 0.137826 0.135461 0.132534 0.132283 0.134466 0.135098 0.127641 0.127806 0.124966 0.120585 0.119667 0.120671 0.120999 0.119742 0.120403 0.121674 0.120072 0.120322 0.118519 0.116456 0.119277 0.116405 0.113477 0.113268 0.119521 0.127 0.135622 0.140287 0.134895 0.126431 0.119595 0.118453 0.117576 0.114276 0.111783 0.107965 0.104301 0.0974193 0.0903886 0.0841899 0.0802442 0.0772786 0.072491 0.0685182 0.067307 0.0684265 0.0747959 0.0759529 0.0778081 0.081853 0.0914195 0.116762
260.51 0.00025 0.368943 0.644282 0.922754 0.776857 0.707065 0.654289 0.605568 0.561464 0.543564 0.508819 0.496545 0.461093 0.419164 0.417614 0.406424 0.378656 0.346612 0.332048 0.325144 0.313014 0.296707 0.283176 0.272365 0.266141 0.257577 0.238941 0.227373 0.226807 0.226324 0.229458 0.225901 0.214647 0.201973 0.197936 0.199218 0.199998 0.19684 0.191486 0.179914 0.169761 0.165749 0.157408 0.153061 0.149597 0.144667 0.142568 0.140337 0.138231 0.137585 0.135316 0.132486 0.13244 0.134713 0.134815 0.127022 0.127592 0.125324 0.120554 0.119374 0.120615 0.121114 0.11993 0.120571 0.121494 0.119665 0.12013 0.118567 0.11634 0.119253 0.116369 0.113256 0.112808 0.119143 0.126742 0.135455 0.14048 0.135368 0.12671 0.119676 0.118479 0.11765 0.11448 0.112122 0.1081 0.104268 0.0973252 0.0903238 0.0841115 0.0801573 0.0772711 0.0726571 0.0685809 0.0671583 0.0683002 0.0748569 0.0760084 0.0777325 0.0817033 0.091289 0.116672
260.5125 0.00025 0.36896 0.643387 0.921479 0.778971 0.705893 0.653384 0.606244 0.561916 0.544652 0.507923 0.494933 0.46194 0.419566 0.418021 0.407613 0.379757 0.347784 0.332923 0.325596 0.313244 0.296961 0.282631 0.271279 0.265453 0.25746 0.239215 0.226993 0.22599 0.22517 0.228175 0.224931 0.213735 0.201192 0.197663 0.19875 0.199096 0.196373 0.191272 0.179879 0.169555 0.165408 0.156764 0.152145 0.148882 0.144546 0.142664 0.139958 0.137616 0.137341 0.135168 0.132451 0.132598 0.134932 0.134544 0.126457 0.127378 0.125625 0.120489 0.119102 0.120566 0.121188 0.120091 0.120753 0.121347 0.119274 0.119914 0.118614 0.116239 0.119176 0.116286 0.113051 0.112378 0.118768 0.126491 0.135259 0.140621 0.135825 0.127019 0.119786 0.118525 0.11773 0.114677 0.112458 0.108244 0.104215 0.0972263 0.0902611 0.0840283 0.0800739 0.0772463 0.0728263 0.0686584 0.0670164 0.0681734 0.0749085 0.0760632 0.0776624 0.0815566 0.0911611 0.116584
260.515 0.00025 0.368932 0.642487 0.920242 0.781458 0.704712 0.652291 0.606865 0.562332 0.545728 0.507309 0.493274 0.462557 0.420141 0.418383 0.408811 0.380797 0.349038 0.333858 0.326031 0.313496 0.297278 0.282099 0.270226 0.26474 0.257251 0.239543 0.226715 0.225261 0.224054 0.226835 0.223867 0.212854 0.200411 0.197395 0.198299 0.198185 0.195912 0.191011 0.179735 0.169361 0.165048 0.156155 0.151248 0.148157 0.144396 0.142783 0.139596 0.137013 0.137094 0.135015 0.132429 0.132753 0.135114 0.134289 0.125954 0.127167 0.125855 0.120391 0.118856 0.120526 0.121224 0.120224 0.120939 0.121232 0.118904 0.119682 0.118653 0.116159 0.119053 0.116149 0.112852 0.111985 0.118396 0.126249 0.135035 0.140708 0.136263 0.127358 0.119923 0.118595 0.117817 0.114869 0.112789 0.108397 0.104142 0.0971221 0.0902 0.0839402 0.079995 0.0772052 0.072995 0.0687499 0.0668825 0.0680469 0.0749489 0.076117 0.0775975 0.0814121 0.0910353 0.116497
260.5175 0.00025 0.368836 0.641604 0.919066 0.784296 0.703562 0.651036 0.607378 0.562691 0.546746 0.507004 0.491603 0.46293 0.420903 0.418701 0.409999 0.381776 0.350382 0.334868 0.326436 0.313763 0.297634 0.281575 0.269223 0.264017 0.256939 0.23991 0.226548 0.224609 0.222985 0.225456 0.222708 0.211988 0.19964 0.197122 0.197865 0.197269 0.195446 0.190738 0.179456 0.169175 0.164674 0.155581 0.150379 0.147431 0.144215 0.142915 0.139249 0.136434 0.136847 0.13486 0.132418 0.132899 0.135255 0.134053 0.125519 0.126964 0.126004 0.120263 0.118638 0.120495 0.121229 0.120322 0.121117 0.121148 0.118561 0.119443 0.118681 0.1161 0.118894 0.115955 0.112647 0.111631 0.118031 0.126013 0.134785 0.140743 0.136676 0.127723 0.12009 0.118691 0.117914 0.115057 0.11311 0.108559 0.10405 0.0970119 0.0901404 0.083849 0.0799217 0.0771499 0.0731595 0.0688545 0.0667581 0.0679232 0.0749774 0.0761697 0.0775382 0.0812707 0.090912 0.116411
260.52 0.00025 0.368686 0.640721 0.917964 0.787448 0.702494 0.649641 0.607781 0.56297 0.547662 0.507032 0.489979 0.463038 0.421865 0.418985 0.411168 0.382692 0.351828 0.335967 0.326804 0.314043 0.298014 0.281054 0.268275 0.263296 0.256519 0.240298 0.226499 0.224024 0.221965 0.224055 0.221446 0.211121 0.198894 0.19684 0.197453 0.196355 0.194969 0.19048 0.179036 0.168982 0.164287 0.155047 0.149547 0.146714 0.143997 0.143043 0.138916 0.135889 0.136597 0.134701 0.132415 0.133028 0.13535 0.133836 0.125157 0.126771 0.126063 0.120105 0.11845 0.120475 0.121212 0.120386 0.121273 0.121092 0.118245 0.119204 0.118695 0.116064 0.118704 0.115706 0.112423 0.111318 0.117677 0.125784 0.134511 0.140725 0.137059 0.128113 0.120286 0.118815 0.118022 0.11524 0.113419 0.10873 0.103941 0.0968944 0.0900814 0.0837557 0.079854 0.0770826 0.0733169 0.0689713 0.0666447 0.0678038 0.0749928 0.0762207 0.0774847 0.0811327 0.0907916 0.116327
260.5225 0.00025 0.368488 0.639831 0.916944 0.790869 0.701582 0.648163 0.608085 0.563132 0.548459 0.507388 0.488451 0.462872 0.423016 0.419257 0.412309 0.383549 0.353368 0.337159 0.327136 0.314337 0.29841 0.280523 0.267388 0.262594 0.255996 0.240686 0.226573 0.2235 0.220997 0.222652 0.220084 0.210239 0.198178 0.196542 0.197063 0.195446 0.194467 0.190252 0.178488 0.168761 0.163891 0.154549 0.14876 0.146015 0.143742 0.143153 0.138599 0.135385 0.136347 0.134546 0.132419 0.133136 0.135401 0.133637 0.124875 0.12659 0.126029 0.11992 0.118292 0.120461 0.121182 0.120419 0.121395 0.121059 0.11796 0.118977 0.118698 0.116047 0.118493 0.115409 0.11217 0.111042 0.117338 0.125562 0.134213 0.140652 0.137408 0.128525 0.120511 0.11897 0.118145 0.11542 0.113717 0.108909 0.103817 0.0967689 0.0900226 0.0836615 0.0797919 0.0770059 0.0734641 0.0690988 0.0665433 0.0676905 0.0749944 0.0762696 0.0774369 0.0809981 0.0906738 0.116244
260.525 0.00025 0.368246 0.63892 0.916047 0.794501 0.700862 0.646626 0.608298 0.563137 0.549109 0.50804 0.487062 0.462426 0.424317 0.419544 0.413404 0.38435 0.354997 0.33845 0.327437 0.314642 0.29881 0.279984 0.266566 0.261916 0.255376 0.241053 0.226767 0.223031 0.22008 0.221267 0.218629 0.209328 0.197497 0.196224 0.196698 0.194546 0.193929 0.190058 0.17784 0.168489 0.16349 0.154085 0.148025 0.145345 0.143456 0.143229 0.138296 0.134931 0.136098 0.134396 0.132428 0.133218 0.135408 0.133457 0.124675 0.126419 0.125899 0.119711 0.118162 0.120453 0.121149 0.120424 0.121474 0.121043 0.117705 0.118768 0.118692 0.116046 0.118262 0.115071 0.11188 0.110797 0.11702 0.125346 0.133895 0.140527 0.137721 0.128952 0.120767 0.119157 0.118284 0.115596 0.113999 0.109094 0.103679 0.0966345 0.0899616 0.0835674 0.0797346 0.0769222 0.0735977 0.0692344 0.0664549 0.0675848 0.0749814 0.0763163 0.0773949 0.0808668 0.0905583 0.116163
260.5275 0.00025 0.367959 0.637983 0.915271 0.79829 0.700392 0.645079 0.608448 0.562968 0.549615 0.508946 0.485868 0.461737 0.425702 0.419882 0.414436 0.385109 0.356696 0.339843 0.327712 0.314955 0.299215 0.279431 0.265802 0.261269 0.254677 0.241382 0.227079 0.222616 0.219213 0.219912 0.217087 0.208377 0.196846 0.195882 0.19636 0.193658 0.193342 0.189888 0.177128 0.168154 0.163084 0.15365 0.147352 0.144709 0.143141 0.143254 0.138007 0.13453 0.135854 0.134254 0.132436 0.133271 0.135373 0.133292 0.124558 0.126256 0.125676 0.119482 0.118056 0.120443 0.121122 0.120407 0.121502 0.121037 0.117477 0.11858 0.11868 0.11606 0.118017 0.1147 0.111552 0.110574 0.116726 0.125136 0.13356 0.140348 0.137993 0.129391 0.121053 0.119378 0.118445 0.115768 0.114265 0.109284 0.103531 0.0964909 0.0898982 0.0834756 0.0796815 0.0768345 0.0737167 0.0693765 0.0663807 0.067489 0.0749533 0.07636 0.0773584 0.0807393 0.0904456 0.116085
260.53 0.00025 0.367633 0.637033 0.914634 0.802216 0.700213 0.643556 0.608551 0.562589 0.549985 0.510039 0.484905 0.460847 0.427081 0.420309 0.415395 0.38584 0.358444 0.34133 0.32798 0.315274 0.299617 0.278868 0.265092 0.260654 0.253911 0.241662 0.227492 0.222256 0.218392 0.218603 0.215478 0.207374 0.196223 0.195516 0.196055 0.192791 0.192694 0.189719 0.176395 0.167743 0.162668 0.153239 0.146747 0.144117 0.142803 0.143213 0.137731 0.134185 0.135616 0.134122 0.132441 0.133294 0.1353 0.133143 0.124522 0.126097 0.125368 0.119234 0.117968 0.12043 0.121107 0.120373 0.121475 0.121034 0.117276 0.118418 0.118669 0.116085 0.117759 0.114305 0.111187 0.110362 0.116458 0.124932 0.133213 0.140115 0.138222 0.129837 0.121369 0.119631 0.118629 0.115935 0.114515 0.109478 0.103375 0.096338 0.0898301 0.0833866 0.0796321 0.0767453 0.0738197 0.0695226 0.0663214 0.0674041 0.0749101 0.0764008 0.0773274 0.0806159 0.0903359 0.116008
260.5325 0.00025 0.367274 0.636075 0.914129 0.806225 0.700376 0.642111 0.608617 0.561987 0.550229 0.51125 0.484189 0.459835 0.428359 0.420856 0.416276 0.386557 0.360221 0.342904 0.328261 0.315598 0.300017 0.278304 0.264424 0.260074 0.2531 0.241885 0.227986 0.221953 0.217613 0.217343 0.213816 0.206314 0.195624 0.195123 0.195783 0.19195 0.19198 0.18953 0.17568 0.167257 0.162234 0.152843 0.146213 0.143577 0.14245 0.143095 0.137464 0.1339 0.135388 0.134001 0.132435 0.133285 0.135192 0.133008 0.124565 0.125938 0.124983 0.118974 0.117894 0.120409 0.12111 0.120329 0.121392 0.121024 0.117098 0.118282 0.118664 0.116119 0.11749 0.113889 0.110793 0.11015 0.116215 0.124735 0.132858 0.13983 0.138404 0.130283 0.121717 0.119918 0.118841 0.116097 0.114748 0.109674 0.103214 0.0961754 0.0897558 0.0833022 0.0795851 0.0766565 0.0739061 0.0696695 0.0662779 0.0673313 0.0748516 0.0764381 0.0773017 0.0804969 0.0902288 0.115933
260.535 0.00025 0.366897 0.635115 0.91374 0.81027 0.700926 0.640761 0.608646 0.561167 0.550367 0.512511 0.483722 0.458791 0.429439 0.42153 0.417082 0.387267 0.362004 0.344548 0.328575 0.315916 0.300412 0.27775 0.263788 0.259524 0.252261 0.242055 0.228535 0.22171 0.21688 0.216136 0.212126 0.20519 0.19504 0.194703 0.195544 0.191142 0.191193 0.189292 0.175012 0.166706 0.161775 0.152451 0.145748 0.1431 0.142091 0.142897 0.137202 0.133676 0.135177 0.133892 0.132417 0.133246 0.135053 0.132886 0.124681 0.125775 0.124533 0.118703 0.117825 0.120374 0.121135 0.12028 0.12126 0.121001 0.116942 0.118169 0.118668 0.116163 0.11721 0.113458 0.110377 0.109929 0.115994 0.124546 0.1325 0.139494 0.138537 0.130724 0.122094 0.120235 0.119084 0.116254 0.114962 0.109871 0.103051 0.0960037 0.0896734 0.0832228 0.0795397 0.0765702 0.073976 0.0698143 0.066251 0.067272 0.0747783 0.0764716 0.0772809 0.080382 0.0901245 0.11586
260.5375 0.00025 0.366515 0.634166 0.913478 0.814314 0.70189 0.639547 0.608641 0.560158 0.550407 0.51376 0.483487 0.457819 0.430266 0.422314 0.417827 0.387985 0.363783 0.346255 0.328949 0.316225 0.3008 0.277219 0.263175 0.258998 0.251412 0.242179 0.229113 0.221528 0.216187 0.214975 0.210429 0.203999 0.194466 0.194252 0.195339 0.190377 0.19033 0.18898 0.174411 0.166115 0.161289 0.152059 0.145346 0.142689 0.141728 0.142613 0.136938 0.13351 0.134986 0.133799 0.132383 0.133181 0.134889 0.13278 0.124861 0.125605 0.124032 0.118427 0.117753 0.120323 0.121184 0.12023 0.121083 0.120956 0.116803 0.118076 0.118686 0.116216 0.116922 0.113012 0.109949 0.109693 0.115789 0.124364 0.132145 0.139109 0.138616 0.131155 0.122502 0.120584 0.119362 0.116406 0.115156 0.110066 0.102889 0.0958239 0.0895815 0.0831488 0.0794949 0.0764875 0.0740301 0.069954 0.0662407 0.0672269 0.0746907 0.0765005 0.0772646 0.0802718 0.0900231 0.115789
260.54 0.00025 0.366144 0.633253 0.913355 0.818304 0.703297 0.638484 0.608591 0.558986 0.550372 0.51495 0.483447 0.45698 0.430814 0.423164 0.418541 0.388706 0.365536 0.347997 0.329406 0.316521 0.301179 0.27673 0.262581 0.25849 0.25057 0.242264 0.229692 0.221407 0.215536 0.213856 0.208748 0.202741 0.193894 0.19377 0.195164 0.189657 0.189384 0.18857 0.173888 0.165501 0.160773 0.151656 0.145001 0.142354 0.141367 0.142247 0.136666 0.133397 0.134818 0.133717 0.132328 0.13309 0.134701 0.132687 0.125094 0.125422 0.123493 0.118147 0.117671 0.12025 0.121258 0.120182 0.120873 0.120885 0.116678 0.117999 0.118718 0.116279 0.116627 0.112556 0.109518 0.109442 0.115591 0.124188 0.131798 0.13868 0.13864 0.131571 0.122937 0.120963 0.119677 0.116556 0.11533 0.110259 0.10273 0.0956374 0.0894794 0.083081 0.0794504 0.0764098 0.0740703 0.070086 0.0662473 0.067197 0.0745895 0.076525 0.0772526 0.0801662 0.089925 0.11572
260.5425 0.00025 0.365792 0.632383 0.91335 0.822208 0.705148 0.637608 0.608473 0.557706 0.550288 0.516037 0.483556 0.456327 0.431104 0.424006 0.419252 0.389444 0.36725 0.349768 0.329974 0.316792 0.301547 0.2763 0.261999 0.257992 0.249751 0.242315 0.230249 0.221343 0.214929 0.212773 0.207105 0.201424 0.193315 0.193258 0.195018 0.188991 0.188359 0.188044 0.173444 0.164892 0.16023 0.151235 0.144701 0.142094 0.141017 0.141803 0.13638 0.133333 0.134678 0.133645 0.132254 0.13298 0.134495 0.132607 0.125365 0.125225 0.122934 0.117868 0.117573 0.120151 0.121353 0.120137 0.120639 0.120785 0.116566 0.117933 0.118765 0.116354 0.116326 0.11209 0.109089 0.109178 0.115393 0.124016 0.131465 0.138212 0.138605 0.131965 0.123399 0.121369 0.12003 0.116704 0.115481 0.110448 0.102576 0.0954461 0.0893659 0.0830182 0.0794051 0.0763372 0.0740978 0.0702069 0.0662701 0.0671819 0.0744756 0.0765436 0.0772444 0.0800652 0.0898298 0.115653
260.545 0.00025 0.365465 0.6316 0.913484 0.82598 0.70744 0.636948 0.608264 0.556359 0.550165 0.516981 0.483762 0.455867 0.431191 0.424754 0.419973 0.390197 0.368907 0.351553 0.330674 0.317031 0.301891 0.27595 0.261432 0.257492 0.248967 0.242346 0.230772 0.221332 0.214367 0.211715 0.205511 0.200057 0.192724 0.192722 0.194895 0.188378 0.187254 0.18739 0.173076 0.164309 0.159662 0.150795 0.144438 0.141909 0.140684 0.141291 0.136075 0.133312 0.13457 0.13358 0.132159 0.132852 0.134275 0.13254 0.125662 0.125013 0.122368 0.117595 0.117449 0.120024 0.121468 0.120098 0.120395 0.120658 0.116462 0.117874 0.118825 0.116441 0.116019 0.111618 0.108667 0.108907 0.115186 0.123844 0.131149 0.137713 0.138508 0.132333 0.123883 0.121801 0.120423 0.116854 0.115609 0.110631 0.102429 0.0952511 0.0892405 0.0829592 0.0793586 0.0762698 0.0741148 0.0703148 0.0663085 0.067182 0.074351 0.0765566 0.0772395 0.0799692 0.089738 0.115588
260.5475 0.00025 0.36518 0.63093 0.913762 0.829582 0.710145 0.636539 0.607942 0.554991 0.550031 0.517766 0.484024 0.455606 0.431166 0.425327 0.42071 0.390978 0.370496 0.353347 0.331529 0.317232 0.302204 0.275697 0.260886 0.256985 0.248231 0.242359 0.231252 0.221364 0.213849 0.210677 0.203979 0.198657 0.192108 0.192165 0.194786 0.18782 0.186075 0.186593 0.172772 0.163768 0.159086 0.150334 0.144205 0.14179 0.140373 0.140724 0.135749 0.133326 0.134496 0.133517 0.132046 0.132713 0.134047 0.132485 0.125971 0.124786 0.121809 0.11733 0.117297 0.119864 0.121597 0.120063 0.120149 0.120505 0.116363 0.117816 0.118894 0.116539 0.11571 0.111142 0.108256 0.108635 0.114966 0.123665 0.130853 0.13719 0.138349 0.132668 0.124387 0.12226 0.120855 0.117011 0.115712 0.110807 0.10229 0.0950548 0.0891052 0.0829034 0.0793111 0.0762077 0.0741239 0.0704082 0.066362 0.0671976 0.0742174 0.0765636 0.0772376 0.0798778 0.0896497 0.115525
260.55 0.00025 0.364957 0.6304 0.914204 0.83295 0.713205 0.636404 0.607498 0.553646 0.549899 0.518372 0.484286 0.455525 0.431101 0.425662 0.421439 0.391806 0.372003 0.355139 0.332558 0.317382 0.30247 0.275556 0.260364 0.256462 0.247548 0.242357 0.231685 0.22143 0.213372 0.209651 0.202511 0.19724 0.191457 0.191594 0.194683 0.187316 0.184827 0.185651 0.172522 0.163284 0.158508 0.14985 0.143997 0.141728 0.140087 0.140115 0.135399 0.133364 0.134456 0.13345 0.131916 0.132567 0.133816 0.132441 0.126277 0.124546 0.121268 0.117081 0.117113 0.11967 0.12173 0.120035 0.119913 0.120336 0.116268 0.117756 0.118968 0.116647 0.1154 0.110664 0.107857 0.108368 0.114728 0.123472 0.130578 0.136651 0.138127 0.132965 0.124908 0.122743 0.121323 0.117178 0.11579 0.110973 0.102161 0.0948589 0.0889607 0.0828483 0.0792616 0.0761498 0.0741265 0.0704854 0.066429 0.0672279 0.0740757 0.0765633 0.0772381 0.0797913 0.0895646 0.115463
260.5525 0.00025 0.364806 0.630016 0.914817 0.83604 0.716586 0.63654 0.606931 0.552366 0.549789 0.518801 0.484499 0.455602 0.431078 0.425733 0.422127 0.392694 0.373423 0.356926 0.333779 0.317486 0.302679 0.275549 0.259874 0.255923 0.246918 0.242349 0.232072 0.221515 0.212936 0.208635 0.201106 0.195826 0.190766 0.191017 0.194577 0.186861 0.183519 0.184562 0.172311 0.162864 0.157939 0.149341 0.14381 0.141714 0.139827 0.139484 0.135025 0.133416 0.134453 0.133379 0.131775 0.132419 0.133586 0.132403 0.126567 0.124296 0.120753 0.11685 0.116893 0.119441 0.121861 0.120009 0.119692 0.120158 0.116174 0.117691 0.119042 0.116762 0.115093 0.110185 0.107472 0.108113 0.114475 0.123259 0.130324 0.136107 0.137846 0.133218 0.12544 0.12325 0.121825 0.11736 0.115843 0.111127 0.102043 0.094665 0.0888095 0.0827924 0.0792102 0.076096 0.0741251 0.0705464 0.0665082 0.0672726 0.0739289 0.0765557 0.0772405 0.07971 0.0894832 0.115403
260.555 0.00025 0.364738 0.629838 0.91561 0.838803 0.720211 0.636957 0.606232 0.551198 0.549711 0.519063 0.484608 0.455815 0.431157 0.425539 0.422722 0.393657 0.374746 0.358695 0.335205 0.317545 0.302816 0.275688 0.259424 0.25537 0.24634 0.242332 0.232424 0.221608 0.212534 0.207626 0.19976 0.194436 0.190028 0.190437 0.194463 0.186451 0.182166 0.18333 0.172122 0.162519 0.157388 0.148813 0.143645 0.141739 0.139586 0.138847 0.134631 0.133471 0.134482 0.133297 0.131626 0.132273 0.133364 0.132364 0.126827 0.12404 0.12027 0.116642 0.116639 0.119176 0.121978 0.119983 0.119493 0.119981 0.116081 0.11762 0.119109 0.11688 0.114792 0.109708 0.107102 0.107872 0.114208 0.123017 0.130089 0.135563 0.137506 0.133422 0.125979 0.123778 0.122358 0.117563 0.115871 0.111267 0.101937 0.0944739 0.0886551 0.0827337 0.0791556 0.0760449 0.0741214 0.0705909 0.0665975 0.0673306 0.0737788 0.0765399 0.077244 0.0796338 0.0894057 0.115345
260.5575 0.00025 0.364765 0.629902 0.916585 0.84119 0.724036 0.637646 0.605402 0.550186 0.549675 0.519177 0.484566 0.456122 0.431388 0.425106 0.423181 0.394701 0.375971 0.360447 0.336839 0.317565 0.302868 0.275979 0.259029 0.254806 0.245809 0.242309 0.232747 0.221699 0.212161 0.206622 0.198469 0.193089 0.18924 0.18986 0.194328 0.186079 0.180778 0.181959 0.171929 0.162249 0.156863 0.148273 0.143498 0.141796 0.139357 0.138219 0.134221 0.133521 0.134537 0.133203 0.131475 0.132132 0.133155 0.13232 0.127048 0.123783 0.119826 0.116459 0.116353 0.118877 0.122073 0.119955 0.119319 0.119816 0.115992 0.117541 0.119165 0.116993 0.1145 0.109232 0.106749 0.107649 0.113932 0.122743 0.129868 0.135028 0.137115 0.133573 0.126519 0.124328 0.122917 0.117791 0.115877 0.111389 0.101843 0.0942867 0.088501 0.0826709 0.079098 0.0759958 0.074117 0.07062 0.0666953 0.0674017 0.0736282 0.0765163 0.0772488 0.0795628 0.0893321 0.115288
260.56 0.00025 0.364904 0.630213 0.917726 0.843166 0.727983 0.6386 0.60444 0.549381 0.549677 0.519165 0.48434 0.45648 0.431798 0.424481 0.423458 0.395818 0.377095 0.362174 0.338674 0.317557 0.302823 0.276424 0.258699 0.254238 0.245323 0.242278 0.23305 0.221777 0.211808 0.205622 0.197227 0.191803 0.188404 0.189287 0.19417 0.185736 0.179368 0.180456 0.171712 0.162057 0.15637 0.147729 0.143366 0.141877 0.139131 0.137617 0.133804 0.133558 0.13461 0.133092 0.131324 0.132002 0.132962 0.132261 0.127223 0.123533 0.119424 0.1163 0.116037 0.118543 0.122138 0.119918 0.119173 0.119669 0.115908 0.117456 0.119205 0.117097 0.114218 0.10876 0.106411 0.107445 0.113655 0.122434 0.129655 0.134506 0.136681 0.133667 0.127053 0.124897 0.123496 0.118048 0.115863 0.11149 0.101763 0.0941035 0.0883512 0.0826026 0.079036 0.0759472 0.0741127 0.0706348 0.0667994 0.0674842 0.0734782 0.0764835 0.077253 0.0794967 0.0892622 0.115233
260.5625 0.00025 0.365163 0.63078 0.919028 0.84472 0.731983 0.639829 0.60337 0.548815 0.549713 0.51905 0.483914 0.456843 0.432403 0.423708 0.423535 0.396988 0.378129 0.36387 0.340701 0.31754 0.302677 0.277015 0.258447 0.253668 0.244875 0.242234 0.233336 0.221838 0.211471 0.204624 0.196027 0.190589 0.187525 0.188715 0.19398 0.185414 0.177951 0.178835 0.17145 0.161943 0.155912 0.147188 0.143242 0.141979 0.138901 0.137049 0.133389 0.133577 0.134692 0.132966 0.131179 0.131885 0.132787 0.132181 0.127344 0.123294 0.119066 0.116168 0.115697 0.118179 0.122164 0.119867 0.119055 0.11955 0.115835 0.117365 0.119226 0.117183 0.113949 0.108297 0.106088 0.107259 0.113379 0.122088 0.129442 0.134001 0.136209 0.133701 0.127575 0.125483 0.124092 0.118339 0.115833 0.111568 0.101695 0.093924 0.088209 0.0825286 0.0789685 0.0758983 0.0741096 0.0706373 0.0669079 0.067577 0.0733318 0.0764421 0.0772571 0.0794363 0.0891968 0.11518
260.565 0.00025 0.365541 0.631638 0.920486 0.845832 0.735952 0.64132 0.602222 0.54851 0.549769 0.518851 0.483291 0.457174 0.433202 0.422857 0.423406 0.398175 0.379085 0.365519 0.342897 0.317529 0.302429 0.277737 0.258291 0.253104 0.244461 0.242176 0.23361 0.221881 0.211142 0.203627 0.194866 0.189457 0.186614 0.188141 0.193753 0.185105 0.176539 0.177109 0.171117 0.161903 0.15549 0.146662 0.143122 0.1421 0.138663 0.136523 0.132986 0.133576 0.134771 0.132824 0.131042 0.131786 0.132637 0.132072 0.127409 0.123071 0.118755 0.116059 0.115337 0.117787 0.122144 0.119796 0.118965 0.119463 0.115781 0.11727 0.119226 0.117245 0.11369 0.107845 0.105777 0.107093 0.113113 0.121711 0.129225 0.133515 0.13571 0.133676 0.12808 0.126082 0.1247 0.118664 0.115792 0.11162 0.10164 0.0937484 0.0880783 0.0824503 0.0788951 0.0758476 0.0741073 0.0706295 0.0670189 0.0676789 0.0731905 0.0763918 0.0772598 0.079381 0.0891355 0.115128
260.5675 0.00025 0.36603 0.632776 0.922114 0.846503 0.739819 0.643056 0.601052 0.548476 0.549812 0.518597 0.482491 0.457452 0.434158 0.421988 0.423088 0.399339 0.379981 0.367112 0.345234 0.31755 0.302091 0.27857 0.258246 0.252555 0.244078 0.242105 0.23387 0.221909 0.210818 0.202632 0.193737 0.188409 0.185687 0.18756 0.193487 0.1848 0.175152 0.175296 0.170688 0.161934 0.155111 0.146161 0.143004 0.142234 0.138413 0.136042 0.132607 0.133557 0.134837 0.132665 0.130917 0.131709 0.13251 0.131928 0.127415 0.122868 0.118491 0.115971 0.114962 0.117372 0.122075 0.1197 0.118898 0.119413 0.11575 0.117176 0.119203 0.117276 0.113442 0.107409 0.105478 0.106945 0.112857 0.121305 0.128995 0.13305 0.135192 0.133595 0.12856 0.12669 0.125316 0.119026 0.115746 0.111643 0.101598 0.0935767 0.0879616 0.0823687 0.0788144 0.0757937 0.0741056 0.0706137 0.0671307 0.0677883 0.0730565 0.076333 0.077261 0.0793312 0.0890787 0.115078
260.57 0.00025 0.366634 0.634203 0.923878 0.846739 0.743519 0.644999 0.599932 0.54871 0.549816 0.5183 0.481541 0.45767 0.435224 0.421179 0.422601 0.400443 0.380822 0.368638 0.347684 0.317625 0.301679 0.279485 0.25832 0.252028 0.24372 0.242019 0.234111 0.221926 0.210489 0.201638 0.192638 0.187445 0.184752 0.186967 0.193176 0.184491 0.173801 0.173422 0.17014 0.162023 0.154773 0.145697 0.142884 0.142369 0.138156 0.135605 0.132258 0.133523 0.134876 0.132489 0.130805 0.131656 0.132406 0.131746 0.127362 0.122686 0.118275 0.115899 0.114576 0.116938 0.121954 0.119573 0.118852 0.119401 0.115748 0.117088 0.119157 0.11727 0.113201 0.106993 0.105189 0.106812 0.112615 0.120878 0.128747 0.132601 0.134659 0.133458 0.12901 0.127304 0.125936 0.119425 0.115701 0.111637 0.101567 0.0934083 0.0878601 0.0822857 0.0787258 0.0757352 0.0741039 0.0705921 0.0672416 0.0679037 0.0729308 0.0762657 0.0772595 0.0792868 0.0890264 0.115029
260.5725 0.00025 0.367341 0.635902 0.92579 0.846563 0.747022 0.647104 0.598957 0.549201 0.549757 0.517965 0.480476 0.457823 0.436339 0.420489 0.42198 0.401445 0.381615 0.370098 0.350204 0.317782 0.301216 0.280455 0.258523 0.251534 0.243383 0.241921 0.234328 0.221937 0.210156 0.200649 0.191567 0.186562 0.183825 0.186358 0.192818 0.184164 0.172501 0.17151 0.169454 0.162158 0.154474 0.145279 0.142765 0.142495 0.137892 0.135209 0.131948 0.133479 0.134882 0.132291 0.130705 0.131628 0.132323 0.131523 0.127251 0.122527 0.118109 0.115841 0.114187 0.116488 0.121778 0.119411 0.11882 0.119428 0.115778 0.11701 0.11909 0.117222 0.112965 0.106599 0.104909 0.106693 0.112385 0.120438 0.128477 0.132169 0.134118 0.133274 0.129422 0.127916 0.126556 0.119859 0.115663 0.1116 0.101546 0.0932444 0.0877751 0.0822046 0.0786293 0.0756713 0.0741011 0.0705673 0.0673505 0.0680237 0.0728149 0.0761904 0.0772547 0.0792476 0.0889791 0.114982
260.575 0.00025 0.368136 0.63789 0.927852 0.84598 0.750296 0.649312 0.598209 0.549914 0.549622 0.517589 0.479343 0.457917 0.437453 0.419974 0.42126 0.402323 0.382361 0.371482 0.352751 0.318041 0.300725 0.281445 0.258857 0.251082 0.243063 0.241813 0.234512 0.221946 0.209816 0.199663 0.190521 0.185749 0.182918 0.185734 0.19241 0.183806 0.171265 0.169587 0.168614 0.162317 0.154215 0.144915 0.142652 0.142599 0.137629 0.134853 0.131682 0.133432 0.134851 0.132072 0.130619 0.13163 0.132258 0.131259 0.127085 0.122391 0.117994 0.115794 0.113799 0.116026 0.121551 0.119212 0.118798 0.119492 0.115843 0.11695 0.119005 0.117129 0.112729 0.10623 0.104641 0.106585 0.112166 0.119993 0.128184 0.131749 0.133574 0.133047 0.129795 0.128521 0.127175 0.120326 0.115638 0.111534 0.101531 0.0930846 0.0877056 0.0821278 0.078525 0.0756003 0.0740952 0.0705415 0.0674567 0.0681464 0.0727095 0.0761076 0.077246 0.079214 0.0889366 0.114936
260.5775 0.00025 0.368996 0.640143 0.93007 0.845021 0.753332 0.651575 0.597771 0.550823 0.549412 0.517163 0.478181 0.457957 0.438516 0.419671 0.420481 0.403067 0.383061 0.372784 0.355281 0.318429 0.300238 0.282431 0.259312 0.250684 0.242756 0.24169 0.234662 0.221956 0.209469 0.198683 0.189498 0.184998 0.182043 0.185096 0.191952 0.183407 0.170105 0.167681 0.167613 0.162478 0.153998 0.144611 0.142553 0.142663 0.137373 0.134533 0.131464 0.133386 0.134782 0.131825 0.13054 0.131664 0.132206 0.130957 0.126866 0.122272 0.117929 0.115752 0.113417 0.115556 0.121273 0.118974 0.118777 0.119593 0.115945 0.116911 0.118905 0.116988 0.11249 0.105886 0.104384 0.106485 0.111954 0.119549 0.127868 0.131338 0.133028 0.132785 0.130122 0.129111 0.12779 0.120822 0.115633 0.111439 0.10152 0.0929306 0.0876507 0.0820587 0.0784142 0.0755219 0.0740845 0.0705167 0.0675598 0.0682709 0.0726154 0.076018 0.0772326 0.0791858 0.0888991 0.114893
260.58 0.00025 0.369915 0.642642 0.932434 0.8437 0.756112 0.653843 0.597714 0.551884 0.549134 0.516681 0.477033 0.457938 0.439485 0.4196 0.419679 0.403671 0.383714 0.373996 0.357744 0.318961 0.299788 0.283387 0.259879 0.250353 0.242462 0.241553 0.234769 0.221969 0.209121 0.197712 0.188499 0.184297 0.181212 0.184451 0.191444 0.182956 0.169033 0.165816 0.166455 0.162611 0.153826 0.144365 0.142482 0.142678 0.137128 0.134247 0.131294 0.133348 0.134676 0.131553 0.130466 0.131728 0.13216 0.130622 0.126598 0.122169 0.117912 0.115714 0.113046 0.11508 0.120944 0.118698 0.118752 0.119725 0.116082 0.116899 0.118797 0.116801 0.112244 0.10557 0.10414 0.106392 0.111745 0.119112 0.127533 0.130932 0.132484 0.132493 0.130403 0.129681 0.128399 0.121343 0.115653 0.111319 0.101509 0.0927838 0.0876081 0.0819999 0.0782986 0.0754351 0.0740668 0.0704943 0.0676589 0.0683951 0.0725333 0.0759225 0.0772137 0.0791631 0.0888668 0.114851