260.5025 0.00025 0.0140045 0.0199849 0.0135039 0.0268718 0.0207087 0.0255743 0.020433 0.019813 0.0251047 0.0240651 0.0213835 0.00974107 -0.00896863 -0.0179981 -0.0166348 -0.0179247 -0.0154571 -0.0086766 -0.00751743 -0.0140403 -0.0189007 -0.0263768 -0.0277307 -0.0205255 -0.0168358 -0.0160808 -0.0120356 -0.00402205 -0.0015893 0.00150969 0.00750698 0.0100772 0.00798488 0.010471 0.0143326 0.00752895 0.00450096 0.004526 0.00481764 0.00678328 0.00987103 0.0135719 0.011191 0.00960714 0.0115065 0.0114668 0.00725218 0.00364903 0.00513217 0.010602 0.0175352 0.0236238 0.0304661 0.0329648 0.0342239 0.0376005 0.0410358 0.0425399 0.0413816 0.0401521 0.0400541 0.0389651 0.0389383 0.0397008 0.0391604 0.0385472 0.0380956 0.0378492 0.0404707 0.0420564 0.0405303 0.0383211 0.0368649 0.0334507 0.0288039 0.0269011 0.0243645 0.0209802 0.0194687 0.0176512 0.0159474 0.0125044 0.0105723 0.0115742 0.0103886 0.00769908 0.00737397 0.00756892 0.00717996 0.00591301 0.00318443 0.00162551 0.000555005 -0.00217606 -0.00632037 -0.0120042 -0.0189663 -0.0240924 -0.0301266 -0.0389722
260.505 0.00025 0.0144147 0.0198167 0.013052 0.0276012 0.021723 0.0269542 0.0206073 0.0192277 0.0249124 0.0242476 0.0213955 0.00985568 -0.00887412 -0.0188705 -0.0174592 -0.0182442 -0.0150927 -0.00881616 -0.00765162 -0.0142206 -0.0194248 -0.0267937 -0.0277944 -0.0207871 -0.0170308 -0.0162575 -0.0123631 -0.00453771 -0.0017457 0.00125039 0.00681183 0.00967057 0.00807814 0.0106834 0.0145666 0.00809671 0.00505149 0.00502561 0.00509719 0.00721055 0.0101061 0.0136352 0.0110919 0.00943067 0.0117315 0.0116993 0.00728618 0.00369093 0.00523715 0.0108874 0.0178883 0.0238418 0.0304559 0.0327767 0.0340986 0.0375786 0.040978 0.0423498 0.0413808 0.0403071 0.0401341 0.0390025 0.038903 0.0394976 0.0389209 0.0383662 0.0378792 0.0375826 0.0402226 0.0420308 0.0405783 0.0382267 0.0367351 0.0333987 0.028768 0.0267326 0.0241706 0.0208943 0.0195499 0.0177888 0.0160281 0.0124818 0.01058 0.0116433 0.0104319 0.0078506 0.00761158 0.00770862 0.00726369 0.00597477 0.0033119 0.00183817 0.000757689 -0.00198205 -0.00615997 -0.0118835 -0.0188873 -0.0240156 -0.0300573 -0.0389259
260.5075 0.00025 0.0148146 0.019637 0.012685 0.028406 0.0226343 0.0282053 0.0208664 0.0186557 0.0247578 0.024505 0.0214349 0.00990734 -0.00874637 -0.0196472 -0.0182138 -0.0185497 -0.0147233 -0.00897403 -0.00785439 -0.0144195 -0.0199952 -0.0272445 -0.0278151 -0.0210239 -0.0172351 -0.0164322 -0.0126691 -0.00505389 -0.00189219 0.0010262 0.00613786 0.00922698 0.00817912 0.0108898 0.0147397 0.00865286 0.0056157 0.00549905 0.00538029 0.00764532 0.0103388 0.0136828 0.0110121 0.00924774 0.0119238 0.0119357 0.0073257 0.00374258 0.005377 0.0111928 0.0182362 0.0240457 0.0304326 0.0326013 0.0339859 0.0375538 0.0408975 0.0421455 0.0413815 0.0404761 0.0402293 0.0390572 0.0388787 0.0392848 0.0386656 0.0381933 0.0376856 0.0373103 0.0399473 0.0419646 0.0406296 0.0381489 0.0366019 0.0333352 0.0287335 0.0265713 0.0239776 0.0207997 0.0196308 0.0179327 0.0161042 0.0124659 0.0106007 0.0117034 0.0104643 0.00801049 0.00785876 0.00784361 0.00733974 0.00603719 0.00343511 0.00204694 0.000954267 -0.00179161 -0.00599698 -0.0117609 -0.0188071 -0.0239365 -0.0299866 -0.0388786
260.51 0.00025 0.0152088 0.0194688 0.0124073 0.029272 0.023466 0.0292906 0.0211977 0.0181272 0.0246511 0.0248315 0.0214986 0.00990276 -0.0086043 -0.0203411 -0.0188887 -0.0188337 -0.0143537 -0.00914258 -0.00812138 -0.014644 -0.0206064 -0.0277329 -0.0277986 -0.0212288 -0.0174509 -0.0166159 -0.0129573 -0.00556372 -0.00203396 0.000836051 0.00549641 0.00874786 0.00828584 0.0110895 0.0148576 0.00919266 0.00619723 0.00595076 0.00566561 0.00808464 0.0105708 0.0137141 0.0109465 0.00906701 0.0120839 0.0121719 0.00737091 0.00380481 0.0055522 0.0115162 0.018579 0.024235 0.0303984 0.0324428 0.0338863 0.037525 0.0407949 0.0419336 0.0413827 0.0406544 0.0403429 0.0391305 0.038865 0.0390654 0.038394 0.0380258 0.0375173 0.0370379 0.0396515 0.0418536 0.0406752 0.038094 0.0364685 0.0332573 0.0286983 0.0264179 0.0237868 0.0206987 0.0197101 0.0180826 0.0161769 0.0124579 0.0106339 0.0117551 0.0104871 0.0081781 0.00811418 0.00797437 0.00740816 0.00610096 0.00355437 0.00225142 0.00114548 -0.0016052 -0.00583137 -0.0116357 -0.0187251 -0.0238551 -0.0299145 -0.0388305
260.5125 0.00025 0.0155958 0.0192982 0.0122282 0.0301961 0.0242634 0.0301995 0.0215754 0.0176758 0.024597 0.0252062 0.021587 0.00986337 -0.00845252 -0.0209663 -0.019471 -0.0190754 -0.0139846 -0.00930917 -0.00844399 -0.0148958 -0.0212539 -0.0282588 -0.0277537 -0.0213941 -0.0176814 -0.0168146 -0.0132299 -0.00605309 -0.00217367 0.000672159 0.00489504 0.00823686 0.00839682 0.0112807 0.0149283 0.00971544 0.00679281 0.00638706 0.00594674 0.00852824 0.0108027 0.0137295 0.010888 0.00889717 0.012213 0.0124014 0.00742027 0.00387931 0.00576283 0.0118548 0.0189142 0.0244059 0.0303548 0.0323026 0.0337994 0.0374914 0.0406691 0.0417184 0.0413816 0.040836 0.0404746 0.0392225 0.0388609 0.0388425 0.0381068 0.0378606 0.0373748 0.0367702 0.0393407 0.0416958 0.0407046 0.0380646 0.0363398 0.0331632 0.0286599 0.0262728 0.0235981 0.0205931 0.0197871 0.0182374 0.016247 0.0124591 0.010678 0.0117978 0.0105016 0.00835153 0.00837587 0.00810172 0.00746945 0.00616672 0.00367007 0.00245092 0.00133131 -0.00142363 -0.00566345 -0.0115079 -0.018641 -0.023771 -0.0298406 -0.0387815
260.515 0.00025 0.0159797 0.0191338 0.0121774 0.0311503 0.0250321 0.0309173 0.0219673 0.0173225 0.0246079 0.025602 0.021685 0.0098024 -0.00829333 -0.0215363 -0.0199647 -0.0192679 -0.0136266 -0.00946754 -0.00881336 -0.0151758 -0.021933 -0.0288204 -0.0276856 -0.0215168 -0.0179279 -0.017033 -0.0134928 -0.00651854 -0.00231642 0.000530257 0.00433931 0.00769968 0.00850648 0.011463 0.0149566 0.0102166 0.00739436 0.00681337 0.00621808 0.00897452 0.0110339 0.0137299 0.0108305 0.00874275 0.0123159 0.0126187 0.00747336 0.00396971 0.00600719 0.0122074 0.0192405 0.0245597 0.0303049 0.0321826 0.0337262 0.037452 0.0405209 0.0415051 0.0413775 0.0410149 0.0406247 0.0393346 0.0388648 0.0386186 0.0378051 0.0376956 0.0372564 0.0365098 0.0390205 0.041494 0.0407058 0.0380617 0.036222 0.0330519 0.0286149 0.0261353 0.0234122 0.0204854 0.0198613 0.0183962 0.0163154 0.0124703 0.0107324 0.0118313 0.0105095 0.00852961 0.00864208 0.00822606 0.00752429 0.00623483 0.00378256 0.00264513 0.00151252 -0.00124707 -0.00549344 -0.011378 -0.0185548 -0.0236848 -0.0297648 -0.0387312
260.5175 0.00025 0.0163546 0.0189793 0.0122206 0.0321357 0.0257914 0.0314641 0.0223521 0.0171016 0.0247105 0.0259986 0.0217871 0.00973897 -0.00813688 -0.0220644 -0.0203757 -0.0193918 -0.0132921 -0.00960483 -0.00921987 -0.0154886 -0.0226337 -0.0294165 -0.027606 -0.0216028 -0.0181929 -0.017271 -0.0137537 -0.00694961 -0.0024626 0.000407895 0.00383058 0.00714369 0.00861113 0.0116419 0.0149525 0.0106976 0.00799249 0.00723593 0.00647961 0.00942841 0.0112654 0.0137156 0.0107668 0.00860442 0.0123981 0.0128177 0.00752822 0.00407631 0.00628182 0.0125713 0.0195558 0.0246962 0.03025 0.0320817 0.0336649 0.0374036 0.0403522 0.0412964 0.04137 0.0411871 0.0407917 0.0394688 0.0388766 0.0383966 0.0374911 0.0375288 0.0371607 0.0362607 0.0386962 0.0412537 0.0406688 0.0380824 0.0361213 0.0329234 0.0285597 0.026005 0.0232293 0.0203778 0.0199319 0.0185574 0.0163833 0.0124929 0.0107961 0.0118554 0.0105125 0.00871143 0.00891029 0.0083482 0.00757361 0.00630516 0.00389255 0.00283332 0.00168938 -0.00107585 -0.00532173 -0.0112455 -0.0184661 -0.023596 -0.0296875 -0.03868
260.52 0.00025 0.016725 0.0188504 0.012356 0.0331327 0.0265792 0.0318498 0.0226982 0.017014 0.024901 0.0263559 0.0218758 0.00969547 -0.00798912 -0.0225546 -0.0207137 -0.0194234 -0.0129866 -0.00971563 -0.0096569 -0.0158308 -0.023341 -0.03004 -0.0275234 -0.0216488 -0.018474 -0.0175306 -0.0140178 -0.00734257 -0.00261229 0.00029861 0.00336952 0.00657941 0.00869897 0.0118197 0.0149177 0.0111588 0.00857626 0.00765392 0.00672656 0.00988626 0.0114981 0.0136844 0.0106938 0.00848193 0.0124699 0.0129947 0.00758373 0.00420473 0.00658579 0.0129473 0.01986 0.0248178 0.0301932 0.0319997 0.0336164 0.0373451 0.0401665 0.0410952 0.0413581 0.0413482 0.0409735 0.039625 0.0388959 0.0381782 0.0371665 0.0373582 0.0370833 0.0360241 0.0383712 0.0409821 0.0405862 0.0381206 0.0360448 0.0327809 0.0284908 0.0258811 0.0230501 0.0202731 0.0199994 0.01872 0.0164517 0.0125278 0.0108688 0.0118701 0.0105127 0.0088959 0.00917804 0.00846847 0.00761812 0.00637743 0.00399986 0.0030151 0.00186216 -0.000910219 -0.00514876 -0.0111109 -0.0183748 -0.0235051 -0.0296081 -0.0386278
260.5225 0.00025 0.0170825 0.0187452 0.0125677 0.0341479 0.0273863 0.0320983 0.022995 0.0170843 0.0252001 0.0266773 0.021938 0.00968447 -0.00786454 -0.0229991 -0.0209966 -0.0193545 -0.012719 -0.00980167 -0.0101187 -0.0162038 -0.0240461 -0.0306794 -0.0274439 -0.0216634 -0.0187738 -0.0178106 -0.014291 -0.00769095 -0.00276516 0.000199739 0.002953 0.00601615 0.00876452 0.0120024 0.0148583 0.0115989 0.0091397 0.00806983 0.00696583 0.0103478 0.0117341 0.0136354 0.0106081 0.00836932 0.0125381 0.0131463 0.00763445 0.00435594 0.00691305 0.0133296 0.0201497 0.0249263 0.0301356 0.0319359 0.0335795 0.0372736 0.0399687 0.0409018 0.0413428 0.0414972 0.041166 0.0398025 0.0389226 0.0379656 0.0368346 0.0371821 0.0370208 0.0358013 0.0380483 0.0406875 0.0404542 0.0381666 0.0359967 0.032628 0.0284053 0.0257607 0.0228741 0.0201735 0.0200633 0.0188816 0.0165217 0.0125758 0.0109493 0.011875 0.0105116 0.0090819 0.0094425 0.00858727 0.00765962 0.00645189 0.00410538 0.00319038 0.0020315 -0.000750064 -0.00497484 -0.0109741 -0.0182803 -0.0234115 -0.0295267 -0.0385744
260.525 0.00025 0.0174288 0.0186729 0.0128322 0.0351727 0.0282257 0.0322365 0.0232298 0.0172975 0.0255835 0.0269394 0.0219625 0.00971806 -0.00776733 -0.0233989 -0.0212415 -0.0191835 -0.012502 -0.00986869 -0.0105997 -0.0166075 -0.0247358 -0.0313276 -0.0273768 -0.0216571 -0.0190895 -0.018109 -0.014575 -0.0079975 -0.00292317 0.00010799 0.00257781 0.00546207 0.0087993 0.0121936 0.014777 0.0120207 0.00967437 0.00847907 0.00720376 0.0108074 0.0119769 0.0135687 0.0105088 0.00826165 0.01261 0.0132733 0.00767844 0.00453313 0.00726231 0.0137182 0.0204253 0.0250235 0.0300794 0.0318892 0.0335536 0.0371876 0.039764 0.0407157 0.0413236 0.0416327 0.0413658 0.0400001 0.0389573 0.0377612 0.0364989 0.0370007 0.0369697 0.0355924 0.037729 0.0403772 0.0402736 0.0382097 0.0359803 0.032471 0.0283012 0.025641 0.0227014 0.0200811 0.0201242 0.0190407 0.0165941 0.0126372 0.0110374 0.0118702 0.0105105 0.00926931 0.00970131 0.00870514 0.00769912 0.00652781 0.00420888 0.00335891 0.00219732 -0.000595224 -0.00480071 -0.0108353 -0.0181822 -0.0233157 -0.0294432 -0.0385197
260.5275 0.00025 0.0177664 0.0186475 0.0131576 0.0362039 0.0290802 0.0322633 0.0234177 0.0176452 0.0260395 0.0271477 0.0219413 0.00979814 -0.00770423 -0.0237469 -0.0214594 -0.0189126 -0.0123325 -0.0099218 -0.011095 -0.0170327 -0.0253969 -0.0319759 -0.0273303 -0.0216399 -0.0194225 -0.0184244 -0.0148723 -0.00826366 -0.00308437 2.01379e-05 0.0022393 0.00492426 0.00879677 0.0123935 0.0146789 0.0124194 0.0101726 0.00887383 0.00744487 0.0112618 0.012233 0.013482 0.0103927 0.00815071 0.0126874 0.0133775 0.00771023 0.00473621 0.00763049 0.0141103 0.020685 0.0251124 0.0300264 0.0318563 0.0335357 0.0370851 0.0395573 0.0405358 0.0413021 0.0417554 0.0415685 0.0402152 0.0390012 0.0375657 0.0361633 0.0368125 0.0369261 0.0353969 0.037414 0.0400578 0.0400486 0.0382388 0.0359944 0.0323164 0.0281769 0.0255181 0.0225314 0.0199979 0.020183 0.0191955 0.0166701 0.0127127 0.0111326 0.0118561 0.0105105 0.00945726 0.00995212 0.00882191 0.00773817 0.00660512 0.00431088 0.00352086 0.00235987 -0.000445617 -0.00462714 -0.0106948 -0.0180807 -0.0232179 -0.0293582 -0.038464
260.53 0.00025 0.0180983 0.0186798 0.013549 0.0372348 0.02995 0.0321979 0.0235615 0.0181257 0.0265544 0.0273123 0.0218729 0.00991359 -0.00767487 -0.024052 -0.0216614 -0.0185522 -0.0122084 -0.00997427 -0.0116039 -0.0174787 -0.0260144 -0.0326088 -0.027312 -0.0216248 -0.0197704 -0.0187599 -0.0151811 -0.00849495 -0.0032469 -6.62587e-05 0.00193316 0.00440734 0.00875376 0.0126047 0.0145693 0.0127949 0.0106335 0.00924684 0.00770078 0.0117069 0.0125072 0.0133784 0.0102625 0.00803653 0.0127726 0.0134655 0.0077293 0.00496689 0.00801453 0.0145026 0.0209291 0.0251965 0.0299788 0.0318355 0.0335244 0.0369664 0.0393552 0.0403619 0.0412774 0.0418671 0.0417699 0.0404428 0.0390557 0.0373816 0.0358323 0.0366169 0.0368873 0.0352145 0.0371044 0.0397337 0.0397869 0.0382455 0.0360357 0.0321719 0.028033 0.0253879 0.0223638 0.0199257 0.0202409 0.0193448 0.0167505 0.0128024 0.0112343 0.0118334 0.0105126 0.00964519 0.0101922 0.00893727 0.00777806 0.00668349 0.00441165 0.00367654 0.00251877 -0.000300983 -0.00445455 -0.0105528 -0.0179748 -0.0231176 -0.0292711 -0.0384071
260.5325 0.00025 0.0184219 0.0187644 0.0140216 0.0382587 0.0308263 0.0320654 0.0236839 0.0187265 0.0271035 0.0274493 0.0217586 0.0100598 -0.00766511 -0.0243226 -0.0218449 -0.018112 -0.0121258 -0.0100357 -0.0121261 -0.0179421 -0.0265756 -0.0332101 -0.0273274 -0.0216212 -0.0201345 -0.0191148 -0.0154966 -0.00869748 -0.00341198 -0.000151163 0.0016587 0.00391481 0.00867066 0.0128252 0.0144532 0.0131404 0.0110527 0.00958862 0.00797481 0.0121355 0.012797 0.0132614 0.0101129 0.00791097 0.0128596 0.0135429 0.00773361 0.00522152 0.00841225 0.0148923 0.0211593 0.0252782 0.029937 0.0318247 0.0335168 0.0368306 0.0391607 0.0401933 0.0412504 0.0419703 0.0419671 0.0406796 0.0391218 0.0372108 0.0355105 0.0364137 0.0368493 0.0350435 0.0367999 0.0394074 0.0394979 0.0382233 0.0360971 0.0320446 0.0278725 0.0252462 0.0221975 0.0198656 0.0202986 0.0194865 0.0168362 0.0129066 0.011342 0.0118029 0.0105175 0.00983315 0.0104197 0.00905111 0.00782017 0.00676251 0.00451083 0.00382644 0.0026742 -0.000160756 -0.00428333 -0.0104093 -0.0178644 -0.0230152 -0.0291821 -0.0383491
260.535 0.00025 0.0187447 0.0189175 0.0145787 0.0392598 0.0317201 0.0318579 0.0237893 0.0194384 0.0276718 0.0275635 0.0216057 0.0102248 -0.00765901 -0.024567 -0.0220105 -0.0176095 -0.0120803 -0.0101189 -0.0126652 -0.018427 -0.0270722 -0.0337628 -0.0273833 -0.0216391 -0.0205131 -0.019493 -0.0158093 -0.00887932 -0.00357766 -0.000237215 0.00141408 0.00345153 0.00854925 0.0130524 0.0143391 0.0134506 0.0114322 0.0098934 0.00827176 0.0125469 0.0131002 0.0131402 0.00994456 0.00777611 0.0129427 0.0136145 0.0077269 0.00549791 0.00881953 0.0152767 0.0213761 0.0253587 0.0299023 0.0318231 0.033511 0.0366791 0.0389778 0.04003 0.0412195 0.042067 0.0421562 0.0409174 0.0391993 0.0370544 0.0352026 0.0362025 0.0368105 0.0348827 0.0365004 0.0390808 0.0391909 0.0381689 0.0361693 0.0319398 0.0276993 0.0250888 0.0220309 0.0198182 0.0203575 0.0196194 0.0169276 0.013025 0.0114549 0.0117661 0.0105258 0.0100205 0.0106329 0.00916292 0.00786564 0.00684226 0.00460858 0.00397114 0.00282591 -2.44033e-05 -0.00411417 -0.0102652 -0.0177494 -0.0229109 -0.0290915 -0.0382898
260.5375 0.00025 0.019058 0.0191335 0.0152384 0.0402195 0.0326242 0.0315796 0.0238876 0.0202362 0.0282328 0.0276649 0.0214232 0.0103903 -0.00764145 -0.0248101 -0.0221556 -0.0170616 -0.0120647 -0.0102311 -0.0132287 -0.0189298 -0.027494 -0.0342508 -0.0274844 -0.0216846 -0.0209098 -0.0198964 -0.0161125 -0.00904698 -0.00374483 -0.000328411 0.00119667 0.00301555 0.00839409 0.0132824 0.0142296 0.0137231 0.011773 0.0101559 0.00859494 0.0129451 0.0134075 0.0130248 0.0097575 0.00763259 0.0130141 0.0136842 0.00771152 0.00578992 0.00923467 0.0156536 0.0215824 0.0254389 0.0298745 0.0318265 0.0335019 0.0365135 0.0388065 0.0398737 0.0411839 0.042161 0.0423372 0.041151 0.039288 0.0369151 0.034913 0.0359842 0.0367665 0.0347303 0.0362049 0.0387531 0.0388737 0.0380837 0.0362426 0.0318617 0.0275194 0.0249125 0.0218625 0.0197842 0.0204194 0.0197429 0.0170251 0.0131578 0.0115727 0.0117246 0.010538 0.0102071 0.0108304 0.0092722 0.00791546 0.00692254 0.00470523 0.00411172 0.0029738 0.000108573 -0.00394747 -0.0101205 -0.017629 -0.0228044 -0.0289991 -0.038229
260.54 0.00025 0.0193712 0.0194405 0.0160024 0.0411197 0.0335427 0.031228 0.0239799 0.021096 0.028772 0.0277489 0.0212258 0.0105352 -0.00760034 -0.0250635 -0.022281 -0.0164905 -0.012072 -0.0103777 -0.0138209 -0.019456 -0.0278363 -0.0346589 -0.0276322 -0.021764 -0.0213262 -0.0203275 -0.0163964 -0.00920758 -0.00391514 -0.00042761 0.00100597 0.00260824 0.00820639 0.0135069 0.0141305 0.0139497 0.0120778 0.0103737 0.0089418 0.0133343 0.0137085 0.0129238 0.00955417 0.00748163 0.0130664 0.0137524 0.00769687 0.00609405 0.00965436 0.0160204 0.0217812 0.0255193 0.0298554 0.0318339 0.0334861 0.0363385 0.0386478 0.039726 0.0411421 0.0422555 0.0425092 0.0413741 0.0393862 0.0367955 0.0346456 0.03576 0.036715 0.0345858 0.0359127 0.0384241 0.0385531 0.0379714 0.0363073 0.0318107 0.0273392 0.0247158 0.0216897 0.0197629 0.0204854 0.0198559 0.0171287 0.0133045 0.0116943 0.0116802 0.0105539 0.0103921 0.0110112 0.00937862 0.00797051 0.00700318 0.0048002 0.00424864 0.00311745 0.00023844 -0.00378352 -0.00997582 -0.0175034 -0.0226961 -0.0289052 -0.0381668
260.5425 0.00025 0.0196761 0.0198127 0.0168654 0.0419256 0.0344766 0.0308249 0.02407 0.021994 0.0292889 0.0278181 0.021028 0.010659 -0.00752914 -0.0253426 -0.0223894 -0.0159184 -0.0120894 -0.0105589 -0.0144508 -0.0200064 -0.0280912 -0.034971 -0.0278243 -0.0218826 -0.0217673 -0.020785 -0.0166523 -0.00936479 -0.00408669 -0.000537986 0.000846524 0.00223014 0.00799499 0.0137228 0.0140477 0.0141292 0.0123461 0.0105472 0.00930797 0.013719 0.0139915 0.0128443 0.00933933 0.00732504 0.0130931 0.0138151 0.00769256 0.00640345 0.0100748 0.0163764 0.0219747 0.0256011 0.0298458 0.0318427 0.0334599 0.0361572 0.0384985 0.0395879 0.0410937 0.0423517 0.0426731 0.0415806 0.039492 0.0366973 0.0344045 0.0355322 0.0366525 0.0344483 0.0356229 0.0380921 0.0382338 0.0378382 0.0363563 0.0317845 0.0271661 0.0244975 0.0215095 0.0197537 0.0205574 0.0199585 0.0172383 0.0134651 0.0118191 0.011635 0.0105745 0.0105753 0.0111745 0.00948171 0.00803091 0.00708436 0.00489381 0.00438285 0.00325676 0.000365929 -0.00362262 -0.00983141 -0.0173723 -0.0225859 -0.0288097 -0.0381031
260.545 0.00025 0.019985 0.0202566 0.0178334 0.0426276 0.0354311 0.0303814 0.0241588 0.0229059 0.0297868 0.0278583 0.0208351 0.0107639 -0.00742329 -0.0256418 -0.0224882 -0.0153763 -0.0121108 -0.0107806 -0.015129 -0.0205873 -0.0282611 -0.0351818 -0.02806 -0.0220444 -0.0222336 -0.0212722 -0.0168751 -0.00952122 -0.0042634 -0.000665481 0.000718815 0.00187807 0.00776396 0.0139222 0.0139828 0.0142567 0.012577 0.0106783 0.00968551 0.0141053 0.0142486 0.0127847 0.00912378 0.00716547 0.0130892 0.0138645 0.00770914 0.00671461 0.0104927 0.0167194 0.0221657 0.0256842 0.029844 0.0318504 0.0334209 0.0359742 0.0383565 0.0394601 0.0410399 0.0424514 0.0428306 0.0417656 0.0396018 0.0366209 0.0341932 0.0353042 0.0365764 0.0343177 0.0353352 0.0377558 0.0379186 0.0376903 0.0363844 0.0317786 0.0270062 0.0242589 0.0213188 0.0197549 0.0206357 0.02005 0.0173532 0.0136392 0.0119462 0.0115903 0.0105995 0.0107554 0.0113196 0.00958015 0.00809635 0.00716549 0.00498588 0.00451526 0.00339149 0.000491247 -0.00346465 -0.00968764 -0.0172357 -0.0224738 -0.0287128 -0.0380383
260.5475 0.00025 0.0202946 0.0207656 0.0189046 0.0432104 0.0364079 0.0299223 0.0242375 0.0238079 0.0302722 0.0278605 0.0206579 0.0108564 -0.00728428 -0.0259402 -0.0225892 -0.0148921 -0.0121205 -0.0110399 -0.0158561 -0.0212015 -0.0283481 -0.0352848 -0.0283314 -0.0222556 -0.0227296 -0.0217869 -0.0170639 -0.00967515 -0.0044473 -0.000815383 0.000624694 0.00155555 0.00751823 0.0141005 0.0139382 0.0143335 0.0127699 0.0107719 0.0100655 0.0144979 0.0144726 0.0127404 0.00891594 0.00700324 0.0130512 0.013893 0.00775757 0.00702431 0.0109049 0.0170521 0.0223561 0.0257685 0.0298502 0.0318557 0.0333665 0.0357939 0.0382197 0.0393443 0.040981 0.0425548 0.0429822 0.0419258 0.0397129 0.0365676 0.0340149 0.0350791 0.0364833 0.0341925 0.0350495 0.0374131 0.0376083 0.0375339 0.0363902 0.0317862 0.0268657 0.0240033 0.0211153 0.0197647 0.0207219 0.0201312 0.0174727 0.0138263 0.0120749 0.0115482 0.0106299 0.0109311 0.0114466 0.00967447 0.00816734 0.00724717 0.00507636 0.00464668 0.00352181 0.000614428 -0.00330999 -0.00954487 -0.0170937 -0.0223598 -0.0286149 -0.0379719
260.55 0.00025 0.0206056 0.0213299 0.0200697 0.043669 0.0374164 0.0294696 0.0243219 0.0246788 0.0307542 0.0278178 0.0204894 0.010943 -0.00713046 -0.0262157 -0.0227125 -0.0144963 -0.012107 -0.0113431 -0.0166333 -0.0218502 -0.0283608 -0.0352844 -0.0286307 -0.0225195 -0.0232528 -0.0223256 -0.0172166 -0.00982358 -0.00463873 -0.00099491 0.000563707 0.00126292 0.00726258 0.0142523 0.0139102 0.0143605 0.0129216 0.0108337 0.0104396 0.0148992 0.0146626 0.0127046 0.0087294 0.00684423 0.01298 0.0138908 0.007844 0.0073314 0.0113058 0.0173738 0.0225461 0.0258549 0.0298646 0.0318558 0.0332962 0.0356198 0.0380861 0.0392382 0.0409193 0.0426615 0.0431319 0.0420592 0.0398207 0.0365354 0.0338721 0.0348609 0.0363723 0.0340723 0.0347664 0.0370624 0.0373037 0.0373745 0.0363746 0.0318001 0.0267483 0.0237345 0.0208968 0.0197799 0.0208161 0.0202033 0.0175962 0.014026 0.012205 0.0115103 0.0106661 0.0111019 0.0115558 0.00976431 0.00824344 0.00732898 0.00516554 0.0047777 0.00364767 0.000735763 -0.00315861 -0.00940358 -0.0169466 -0.0222439 -0.0285157 -0.037904
260.5525 0.00025 0.0209223 0.0219369 0.0213314 0.0440093 0.0384519 0.0290197 0.0243939 0.0254911 0.0312385 0.0277156 0.0203268 0.0110348 -0.00696015 -0.0264276 -0.0228676 -0.0142259 -0.0120648 -0.01168 -0.0174584 -0.0225375 -0.0283085 -0.0351821 -0.0289482 -0.0228417 -0.0238097 -0.0228886 -0.01734 -0.00996538 -0.00484313 -0.00121199 0.000532255 0.00100054 0.00700254 0.014378 0.0138976 0.0143422 0.0130276 0.0108714 0.0107982 0.0153089 0.0148181 0.0126669 0.00857189 0.00669066 0.0128785 0.0138499 0.00797211 0.00763745 0.0116919 0.0176878 0.0227369 0.0259436 0.0298865 0.031849 0.0332085 0.0354541 0.0379533 0.039141 0.0408577 0.0427711 0.0432809 0.0421652 0.0399217 0.0365245 0.0337665 0.0346534 0.0362422 0.0339559 0.0344874 0.0367026 0.0370038 0.0372161 0.0363415 0.0318143 0.026656 0.0234578 0.020662 0.0197974 0.0209182 0.0202672 0.017722 0.0142377 0.0123363 0.0114776 0.010709 0.0112663 0.011647 0.00984907 0.00832371 0.00741063 0.00525363 0.00490889 0.00376916 0.000855217 -0.00301015 -0.00926384 -0.0167943 -0.0221258 -0.0284154 -0.0378345
260.555 0.00025 0.0212398 0.0225875 0.0226751 0.0442357 0.0395026 0.0285899 0.0244528 0.0262383 0.0317329 0.0275554 0.0201628 0.0111453 -0.00678817 -0.0265529 -0.0230522 -0.0141021 -0.0119832 -0.012042 -0.0183267 -0.0232583 -0.0282018 -0.034984 -0.029272 -0.0232231 -0.0243982 -0.0234617 -0.0174372 -0.0100913 -0.00505655 -0.00147106 0.000529972 0.00077315 0.00674331 0.0144723 0.0138953 0.0142834 0.0130861 0.0108918 0.0111348 0.0157271 0.0149465 0.0126184 0.00845058 0.00654721 0.0127486 0.0137629 0.0081403 0.00794568 0.0120579 0.0179944 0.0229282 0.026034 0.0299134 0.0318338 0.0331053 0.035301 0.0378225 0.0390507 0.0407997 0.0428817 0.0434312 0.0422447 0.0400139 0.036532 0.0337 0.0344611 0.0360929 0.0338414 0.0342132 0.036332 0.0367059 0.0370608 0.0362938 0.0318233 0.0265887 0.0231792 0.0204115 0.0198139 0.0210281 0.0203252 0.0178494 0.0144606 0.0124683 0.0114515 0.0107596 0.011423 0.0117211 0.00992899 0.00840762 0.00749192 0.00534098 0.00504073 0.0038869 0.000972837 -0.00286461 -0.00912565 -0.0166374 -0.0220055 -0.028314 -0.0377635
260.5575 0.00025 0.0215538 0.0232537 0.024089 0.0443472 0.0405467 0.0281947 0.0244976 0.0269145 0.0322347 0.0273362 0.0199811 0.011294 -0.00663017 -0.0265714 -0.0232618 -0.0141617 -0.0118672 -0.0124245 -0.0192346 -0.0240051 -0.0280571 -0.034701 -0.0295954 -0.023666 -0.0250202 -0.02404 -0.0175181 -0.0101995 -0.00527914 -0.00177414 0.000551159 0.000583927 0.00649351 0.0145319 0.0138963 0.014193 0.0130965 0.0109038 0.0114409 0.0161466 0.0150522 0.0125526 0.00836864 0.00641778 0.0125965 0.013628 0.00834272 0.00826023 0.0124024 0.0182979 0.0231187 0.0261258 0.0299436 0.0318077 0.0329882 0.0351609 0.0376935 0.0389631 0.0407478 0.0429929 0.0435835 0.0423007 0.0400939 0.0365538 0.0336718 0.0342872 0.035925 0.0337274 0.0339452 0.0359514 0.0364099 0.0369104 0.0362358 0.0318247 0.026544 0.0229042 0.0201461 0.0198257 0.0211441 0.0203789 0.0179766 0.0146934 0.0126019 0.0114328 0.010819 0.011571 0.0117785 0.0100039 0.00849471 0.00757265 0.00542771 0.00517337 0.00400113 0.00108826 -0.00272209 -0.00898953 -0.0164764 -0.0218833 -0.0282118 -0.0376907
260.56 0.00025 0.0218636 0.0239416 0.0255531 0.0443545 0.04155 0.0278386 0.0245142 0.0275258 0.0327458 0.0270766 0.0197765 0.0114913 -0.00649819 -0.0264813 -0.0234753 -0.0144206 -0.0117236 -0.0128159 -0.0201776 -0.0247731 -0.0278891 -0.0343425 -0.029907 -0.0241683 -0.0256758 -0.0246138 -0.0175927 -0.010289 -0.00550964 -0.00212596 0.000588302 0.000435374 0.00625801 0.0145528 0.0138925 0.0140805 0.0130606 0.0109117 0.0117108 0.0165589 0.0151428 0.0124628 0.00832439 0.00630728 0.0124271 0.0134459 0.00856918 0.00858366 0.0127238 0.0185992 0.0233089 0.0262203 0.0299768 0.0317687 0.0328571 0.0350343 0.0375682 0.0388756 0.0407047 0.0431012 0.043737 0.0423353 0.0401595 0.0365871 0.0336805 0.0341345 0.0357399 0.0336114 0.0336846 0.0355613 0.0361128 0.036765 0.036171 0.0318189 0.0265181 0.0226391 0.0198695 0.0198291 0.0212649 0.0204303 0.0181026 0.0149352 0.0127375 0.0114218 0.0108875 0.0117091 0.0118202 0.0100734 0.00858409 0.00765259 0.00551473 0.00530726 0.00411273 0.00120172 -0.00258215 -0.00885485 -0.0163117 -0.0217588 -0.0281088 -0.0376165
260.5625 0.00025 0.0221644 0.0246194 0.0270303 0.0442822 0.0424724 0.0275205 0.0244867 0.0280664 0.0332538 0.0267879 0.01954 0.0117334 -0.00639481 -0.0262872 -0.0236663 -0.014884 -0.0115726 -0.0132003 -0.0211389 -0.0255525 -0.0277144 -0.0339213 -0.0302028 -0.0247331 -0.0263632 -0.0251733 -0.0176688 -0.0103579 -0.00574706 -0.00252568 0.000631464 0.000330524 0.00604626 0.0145319 0.0138757 0.0139518 0.01298 0.0109204 0.0119411 0.0169522 0.0152238 0.0123521 0.00831494 0.00622117 0.012244 0.0132218 0.0088069 0.00891883 0.0130238 0.0188975 0.0234967 0.0263172 0.0300109 0.0317169 0.0327163 0.0349213 0.0374484 0.0387871 0.0406731 0.0432055 0.0438929 0.0423522 0.0402096 0.0366289 0.0337236 0.0340053 0.0355397 0.0334929 0.0334327 0.035163 0.0358141 0.0366239 0.0361004 0.0318074 0.026506 0.0223888 0.0195852 0.0198212 0.0213879 0.0204811 0.0182267 0.0151848 0.0128762 0.0114191 0.0109665 0.0118368 0.0118475 0.0101376 0.00867493 0.00773069 0.00560208 0.00544237 0.00422216 0.00131277 -0.00244495 -0.00872158 -0.0161435 -0.0216318 -0.028005 -0.0375405
260.565 0.00025 0.0224555 0.0252811 0.0285051 0.0441374 0.0432769 0.0272515 0.0244347 0.0285198 0.0337557 0.0264818 0.0192717 0.0119994 -0.00631002 -0.0260074 -0.0238131 -0.0155381 -0.0114412 -0.0135719 -0.0221061 -0.0263357 -0.0275463 -0.0334465 -0.0304769 -0.0253549 -0.0270759 -0.0257121 -0.017753 -0.0104081 -0.00598632 -0.00296822 0.000672251 0.000271539 0.00586644 0.0144664 0.0138379 0.0138167 0.0128589 0.010934 0.0121318 0.0173127 0.0152975 0.0122229 0.00833016 0.00616437 0.0120469 0.0129649 0.00904517 0.00926521 0.0133061 0.0191931 0.0236807 0.0264146 0.030043 0.031651 0.0325673 0.0348204 0.0373349 0.0386938 0.040654 0.0433042 0.0440496 0.0423554 0.0402451 0.0366778 0.0337986 0.0339031 0.0353274 0.0333708 0.0331906 0.0347577 0.0355123 0.0364854 0.0360256 0.0317934 0.0265026 0.0221568 0.0192981 0.0197996 0.0215103 0.0205325 0.018348 0.0154405 0.0130186 0.0114247 0.0110561 0.0119537 0.0118613 0.010196 0.00876659 0.0078066 0.0056901 0.00557867 0.00433016 0.00142147 -0.00231024 -0.00858947 -0.015973 -0.0215024 -0.0279005 -0.0374624
260.5675 0.00025 0.0227358 0.0259215 0.029937 0.0439294 0.0439115 0.0270073 0.0243589 0.0288814 0.0342433 0.0261753 0.0189833 0.0122646 -0.00622659 -0.0256462 -0.0239015 -0.0163589 -0.0113628 -0.0139173 -0.0230599 -0.0271128 -0.0273978 -0.0329328 -0.0307306 -0.0260276 -0.0278075 -0.0262245 -0.0178484 -0.0104442 -0.00622502 -0.00344626 0.000700653 0.000258668 0.00572494 0.0143534 0.0137732 0.0136803 0.0127026 0.0109532 0.0122857 0.0176282 0.0153677 0.0120853 0.00836457 0.00614281 0.011837 0.0126871 0.00927222 0.00961856 0.0135757 0.019488 0.0238606 0.0265142 0.0300714 0.0315722 0.0324131 0.0347316 0.0372296 0.0385968 0.0406498 0.0433971 0.0442049 0.0423485 0.040266 0.0367311 0.0339011 0.0338276 0.0351046 0.0332438 0.0329585 0.0343473 0.0352066 0.0363481 0.0359457 0.0317805 0.026504 0.0219454 0.0190138 0.0197623 0.0216286 0.0205855 0.0184664 0.0157009 0.0131665 0.0114391 0.0111565 0.0120592 0.0118628 0.0102483 0.00885841 0.00787984 0.00577923 0.0057162 0.00443746 0.00152753 -0.00217854 -0.00845836 -0.0158007 -0.0213704 -0.0277956 -0.0373827
260.57 0.00025 0.0229958 0.0265261 0.0313191 0.0436734 0.0443396 0.0267781 0.0242548 0.0291514 0.0347092 0.0258951 0.0186892 0.0125109 -0.00614014 -0.0252149 -0.0239307 -0.0173118 -0.0113788 -0.0142382 -0.0239837 -0.0278795 -0.0272818 -0.0323919 -0.0309634 -0.0267477 -0.0285507 -0.0267083 -0.0179583 -0.0104746 -0.00646238 -0.00395441 0.000710786 0.000291278 0.00562728 0.01419 0.0136741 0.013551 0.0125168 0.010981 0.0124099 0.017885 0.0154326 0.0119461 0.00841097 0.00615691 0.0116163 0.0123979 0.00947907 0.00997122 0.0138392 0.0197801 0.0240343 0.0266149 0.0300935 0.0314811 0.0322548 0.0346532 0.0371326 0.0384963 0.0406601 0.0434835 0.044356 0.0423355 0.040273 0.0367881 0.0340261 0.0337797 0.0348742 0.0331115 0.0327372 0.0339332 0.0348969 0.0362105 0.0358615 0.0317709 0.0265065 0.0217556 0.018738 0.0197092 0.0217401 0.0206408 0.0185813 0.015964 0.0133206 0.0114624 0.0112669 0.0121538 0.0118533 0.010294 0.00894967 0.00794979 0.00586971 0.00585483 0.00454476 0.00163105 -0.00204978 -0.00832788 -0.0156275 -0.0212359 -0.0276902 -0.0373013