260.5025 0.00025 -0.0108457 -0.0579916 -0.123271 -0.121937 -0.130085 -0.123437 -0.116322 -0.11172 -0.105816 -0.106492 -0.111165 -0.10984 -0.105789 -0.102448 -0.0994966 -0.0990702 -0.0928245 -0.0868894 -0.0833327 -0.0794568 -0.0763639 -0.0767351 -0.0760409 -0.0739744 -0.0737893 -0.0691381 -0.0667162 -0.0648359 -0.0636119 -0.0634808 -0.0596566 -0.0571677 -0.0535992 -0.0539766 -0.0512622 -0.0514947 -0.0499771 -0.0482047 -0.0447771 -0.0433061 -0.0384619 -0.0374853 -0.0367357 -0.0369046 -0.0360998 -0.0336877 -0.0331783 -0.0362828 -0.0382087 -0.0399112 -0.0403592 -0.0416476 -0.0431593 -0.045497 -0.047393 -0.0493926 -0.051963 -0.0526532 -0.0525737 -0.0522978 -0.0523222 -0.051572 -0.0518492 -0.051523 -0.0503807 -0.0477913 -0.0457514 -0.0437654 -0.0428971 -0.0406787 -0.0367468 -0.0332252 -0.0315722 -0.0313189 -0.0295909 -0.0265632 -0.0229563 -0.019697 -0.0170913 -0.0172429 -0.0182646 -0.0183552 -0.0175009 -0.0167124 -0.0166887 -0.0157603 -0.0146911 -0.0143838 -0.0137742 -0.0124202 -0.0106437 -0.0091399 -0.00884144 -0.00772088 -0.00593756 -0.00339879 -0.00295851 -0.00175747 -0.00150532 -0.000414032
260.505 0.00025 -0.0108482 -0.0582435 -0.123062 -0.121854 -0.129562 -0.123287 -0.116986 -0.112495 -0.106532 -0.10602 -0.110742 -0.110215 -0.105805 -0.102457 -0.100028 -0.099484 -0.0929241 -0.0869917 -0.0834673 -0.0798036 -0.0766822 -0.0769818 -0.0761823 -0.0739458 -0.07372 -0.0693984 -0.0667706 -0.0643271 -0.0632125 -0.0635049 -0.0594574 -0.0565848 -0.0532775 -0.0538042 -0.0508037 -0.0511104 -0.0497584 -0.0482078 -0.0449762 -0.0434905 -0.0385547 -0.0374895 -0.0365732 -0.0367822 -0.0360072 -0.033505 -0.0328698 -0.0361454 -0.038337 -0.0401526 -0.0405646 -0.0418099 -0.0431803 -0.0452524 -0.0470122 -0.0493523 -0.0521986 -0.0526347 -0.0524872 -0.0523459 -0.0523848 -0.051644 -0.0517759 -0.0513254 -0.0501822 -0.0477342 -0.0458072 -0.0438218 -0.0431501 -0.0410807 -0.0370522 -0.0333133 -0.031454 -0.0311749 -0.0294869 -0.0266264 -0.0231333 -0.0198798 -0.0171826 -0.0172162 -0.0181764 -0.0183392 -0.0175366 -0.016715 -0.0166948 -0.0157083 -0.0146015 -0.0142689 -0.0136931 -0.0124606 -0.0107678 -0.00916402 -0.00878031 -0.00771293 -0.00599177 -0.00341696 -0.00293563 -0.00175081 -0.00150193 -0.000412888
260.5075 0.00025 -0.0108483 -0.0584948 -0.122903 -0.121907 -0.129026 -0.123101 -0.117661 -0.113346 -0.107368 -0.105572 -0.110192 -0.110456 -0.105853 -0.102505 -0.10057 -0.099862 -0.092997 -0.0871331 -0.0835906 -0.0801718 -0.0770406 -0.0772272 -0.0763092 -0.0739075 -0.0736358 -0.0696756 -0.0668245 -0.0638126 -0.0628148 -0.0635012 -0.0592394 -0.0560132 -0.0529758 -0.0536213 -0.0503403 -0.050707 -0.0495176 -0.0481873 -0.0451649 -0.0436572 -0.0386762 -0.0375289 -0.03641 -0.0366467 -0.0359056 -0.0333575 -0.0326012 -0.0360115 -0.0384453 -0.0403816 -0.0407788 -0.0419893 -0.043211 -0.0450175 -0.0466475 -0.0493231 -0.0524069 -0.0526014 -0.0523946 -0.052401 -0.0524353 -0.0517184 -0.0517313 -0.0511419 -0.0499735 -0.0476584 -0.0458581 -0.0438586 -0.0433406 -0.041447 -0.0373781 -0.0334523 -0.0313733 -0.0310439 -0.0293672 -0.0266687 -0.0233048 -0.0200695 -0.0172932 -0.0171995 -0.0180877 -0.0183183 -0.0175678 -0.0167142 -0.0166968 -0.0156594 -0.0145214 -0.0141484 -0.0136037 -0.0124931 -0.0108928 -0.00919933 -0.008718 -0.00769902 -0.00604592 -0.0034396 -0.00291246 -0.00174366 -0.00149879 -0.000411099
260.51 0.00025 -0.0108371 -0.058757 -0.122765 -0.122102 -0.128508 -0.122891 -0.118325 -0.114285 -0.108279 -0.10517 -0.109535 -0.11054 -0.105922 -0.102607 -0.101129 -0.100199 -0.0930386 -0.0873129 -0.0837125 -0.0805542 -0.0774209 -0.0774739 -0.0764344 -0.0738619 -0.0735457 -0.0699619 -0.0668741 -0.0633022 -0.0624173 -0.0634549 -0.0589973 -0.0554698 -0.0527003 -0.0534257 -0.0498724 -0.0502896 -0.04926 -0.0481365 -0.0453315 -0.0438098 -0.0388264 -0.0375995 -0.0362531 -0.0365017 -0.0357897 -0.03324 -0.032376 -0.0358851 -0.0385333 -0.0405992 -0.0410019 -0.0421807 -0.0432504 -0.0447968 -0.0463041 -0.0492997 -0.0525818 -0.0525542 -0.0522979 -0.0524633 -0.0524747 -0.0517895 -0.05171 -0.0509738 -0.0497622 -0.0475667 -0.0459038 -0.0438852 -0.0434696 -0.0417654 -0.0377141 -0.0336416 -0.0313334 -0.0309317 -0.0292367 -0.0266921 -0.0234713 -0.020265 -0.0174215 -0.0171935 -0.0179986 -0.0182922 -0.0175963 -0.0167107 -0.0166925 -0.0156136 -0.0144531 -0.014023 -0.0135064 -0.0125168 -0.0110157 -0.00924607 -0.00865684 -0.00767961 -0.00609919 -0.00346693 -0.00288862 -0.00173472 -0.00149567 -0.000410123
260.5125 0.00025 -0.0108207 -0.0590197 -0.122648 -0.122433 -0.128003 -0.122674 -0.118958 -0.115278 -0.109237 -0.104843 -0.108804 -0.110476 -0.106001 -0.102748 -0.101709 -0.100491 -0.0930603 -0.0875331 -0.0838336 -0.080949 -0.0778137 -0.0777058 -0.0765586 -0.073829 -0.0734582 -0.0702401 -0.0669237 -0.0628056 -0.0620273 -0.0633579 -0.0587158 -0.0549522 -0.0524514 -0.0532052 -0.0494008 -0.0498693 -0.0489878 -0.0480561 -0.0454627 -0.0439425 -0.0390017 -0.0377032 -0.0361138 -0.0363424 -0.035657 -0.0331519 -0.0321983 -0.0357707 -0.0386 -0.040802 -0.04123 -0.0423789 -0.043297 -0.044595 -0.0459909 -0.0492828 -0.0527133 -0.0524915 -0.0522031 -0.0525284 -0.0525015 -0.0518547 -0.0517086 -0.050824 -0.0495549 -0.0474608 -0.0459403 -0.043907 -0.0435434 -0.042026 -0.0380492 -0.0338772 -0.0313369 -0.0308417 -0.0290999 -0.0266966 -0.0236282 -0.0204639 -0.0175663 -0.017198 -0.0179104 -0.018262 -0.0176213 -0.0167035 -0.0166821 -0.0155707 -0.0143958 -0.0138941 -0.0134017 -0.0125315 -0.0111349 -0.00930273 -0.00859786 -0.00765564 -0.0061516 -0.00349829 -0.0028652 -0.0017254 -0.00149219 -0.000408758
260.515 0.00025 -0.010804 -0.0592701 -0.122537 -0.122895 -0.127558 -0.122471 -0.119536 -0.116309 -0.11021 -0.104617 -0.108026 -0.110261 -0.106081 -0.102922 -0.102322 -0.100748 -0.0930711 -0.0877886 -0.0839674 -0.0813626 -0.0782198 -0.0779304 -0.0766841 -0.0738197 -0.0733744 -0.0705015 -0.066968 -0.0623325 -0.0616544 -0.0632052 -0.0583881 -0.0544726 -0.0522365 -0.0529569 -0.0489294 -0.0494437 -0.0487084 -0.0479564 -0.0455506 -0.0440504 -0.0392033 -0.0378332 -0.035997 -0.0361757 -0.0355109 -0.0330867 -0.0320687 -0.0356717 -0.0386447 -0.0409899 -0.0414632 -0.0425795 -0.0433443 -0.0444132 -0.0457177 -0.049273 -0.0527995 -0.052414 -0.0521131 -0.052593 -0.0525173 -0.0519113 -0.0517211 -0.0506933 -0.0493615 -0.0473462 -0.0459644 -0.0439303 -0.0435714 -0.0422217 -0.0383711 -0.0341537 -0.0313867 -0.0307776 -0.0289614 -0.0266827 -0.0237747 -0.020665 -0.0177266 -0.0172147 -0.0178234 -0.0182251 -0.0176437 -0.0166945 -0.0166629 -0.0155299 -0.0143504 -0.0137636 -0.0132918 -0.0125374 -0.0112479 -0.00936921 -0.00854215 -0.00762666 -0.00620175 -0.00353351 -0.00284172 -0.00171492 -0.00148856 -0.000407775
260.5175 0.00025 -0.0107866 -0.0595125 -0.122453 -0.123444 -0.127127 -0.122282 -0.120063 -0.11736 -0.111157 -0.104473 -0.107239 -0.109909 -0.106162 -0.10313 -0.102975 -0.10096 -0.0930747 -0.0880801 -0.0841033 -0.0817885 -0.0786314 -0.0781425 -0.0768185 -0.07384 -0.0732897 -0.0707417 -0.0670113 -0.061894 -0.0613011 -0.0629897 -0.0580064 -0.0540354 -0.0520557 -0.0526767 -0.0484629 -0.0490179 -0.0484246 -0.0478394 -0.0455823 -0.0441247 -0.0394237 -0.0379879 -0.0359135 -0.0360002 -0.0353492 -0.0330387 -0.0319884 -0.0355932 -0.0386711 -0.0411647 -0.0416975 -0.0427746 -0.043392 -0.0442544 -0.0454885 -0.0492708 -0.052838 -0.0523227 -0.0520341 -0.0526557 -0.0525241 -0.0519571 -0.0517381 -0.0505785 -0.0491866 -0.0472284 -0.0459731 -0.0439541 -0.0435617 -0.042348 -0.0386693 -0.0344636 -0.0314833 -0.0307451 -0.0288293 -0.0266536 -0.0239096 -0.0208671 -0.0179005 -0.0172435 -0.0177388 -0.0181824 -0.0176641 -0.016684 -0.0166348 -0.0154897 -0.0143166 -0.013634 -0.0131777 -0.0125346 -0.0113536 -0.00944481 -0.00849071 -0.00759251 -0.00624978 -0.00357303 -0.0028186 -0.00170372 -0.00148563 -0.000407265
260.52 0.00025 -0.0107711 -0.059725 -0.122399 -0.124063 -0.126721 -0.122135 -0.120541 -0.118393 -0.112053 -0.104381 -0.106465 -0.109448 -0.106248 -0.103365 -0.103658 -0.101134 -0.0930781 -0.0884072 -0.0842572 -0.0822262 -0.0790357 -0.0783283 -0.0769586 -0.0738853 -0.0732081 -0.0709485 -0.067049 -0.0614926 -0.0609669 -0.0627145 -0.0575663 -0.0536423 -0.0519096 -0.0523579 -0.0479995 -0.0485989 -0.0481382 -0.0477141 -0.0455529 -0.04416 -0.0396606 -0.0381662 -0.0358678 -0.0358193 -0.0351734 -0.0330055 -0.0319563 -0.035534 -0.0386756 -0.0413264 -0.0419301 -0.0429616 -0.043437 -0.044123 -0.0453125 -0.0492741 -0.0528242 -0.0522178 -0.0519713 -0.052713 -0.0525239 -0.0519901 -0.0517518 -0.0504767 -0.0490351 -0.0471151 -0.0459669 -0.0439803 -0.0435255 -0.0424041 -0.0389329 -0.0347963 -0.0316256 -0.0307459 -0.0287087 -0.0266102 -0.0240298 -0.0210677 -0.0180856 -0.0172848 -0.0176584 -0.0181335 -0.0176826 -0.0166725 -0.0165953 -0.0154487 -0.0142939 -0.0135065 -0.0130594 -0.0125229 -0.0114501 -0.00952849 -0.00844505 -0.00755461 -0.00629495 -0.00361529 -0.00279617 -0.00169224 -0.00148161 -0.000406733
260.5225 0.00025 -0.0107574 -0.0599139 -0.122369 -0.124735 -0.126344 -0.122034 -0.120987 -0.119381 -0.112897 -0.104348 -0.105725 -0.108898 -0.106348 -0.103605 -0.104359 -0.101263 -0.0930922 -0.0887704 -0.0844194 -0.0826692 -0.0794284 -0.0784903 -0.0771093 -0.0739717 -0.073132 -0.0711172 -0.0670843 -0.0611422 -0.0606494 -0.0623732 -0.0570697 -0.053287 -0.0517973 -0.0520124 -0.0475481 -0.048183 -0.0478567 -0.0475869 -0.0454656 -0.0441489 -0.039897 -0.0383617 -0.0358664 -0.0356441 -0.034983 -0.0329803 -0.031968 -0.035501 -0.0386654 -0.0414761 -0.0421579 -0.0431377 -0.0434798 -0.0440188 -0.0451913 -0.0492813 -0.0527598 -0.0520997 -0.0519285 -0.0527612 -0.0525177 -0.052013 -0.0517541 -0.0503861 -0.0489093 -0.047013 -0.0459445 -0.0440051 -0.0434714 -0.0423949 -0.0391531 -0.0351409 -0.031812 -0.0307825 -0.028606 -0.0265591 -0.0241368 -0.0212646 -0.0182799 -0.0173404 -0.0175828 -0.0180773 -0.0176988 -0.0166622 -0.016545 -0.0154075 -0.014282 -0.0133818 -0.0129378 -0.012504 -0.0115365 -0.0096183 -0.00840609 -0.00751293 -0.00633718 -0.00366064 -0.0027743 -0.00167988 -0.00147763 -0.000406189
260.525 0.00025 -0.0107452 -0.06005 -0.122354 -0.125404 -0.125971 -0.12198 -0.121419 -0.120306 -0.113652 -0.104348 -0.105047 -0.108282 -0.106456 -0.103843 -0.105058 -0.101363 -0.0931447 -0.0891687 -0.084591 -0.0831166 -0.0798131 -0.0786257 -0.0772725 -0.0741021 -0.0730637 -0.0712417 -0.0671176 -0.0608548 -0.0603454 -0.0619706 -0.0565175 -0.0529652 -0.0517132 -0.0516405 -0.047111 -0.0477748 -0.0475782 -0.0474575 -0.0453264 -0.0440902 -0.0401271 -0.0385698 -0.0359118 -0.0354805 -0.0347775 -0.0329659 -0.0320238 -0.0354934 -0.0386405 -0.0416158 -0.0423765 -0.0432975 -0.0435165 -0.0439444 -0.0451258 -0.0492908 -0.0526469 -0.0519689 -0.0519065 -0.0528012 -0.0525083 -0.0520235 -0.0517366 -0.0503016 -0.0488088 -0.046931 -0.0459099 -0.044025 -0.043405 -0.0423259 -0.0393206 -0.0354855 -0.0320398 -0.0308562 -0.0285278 -0.0265031 -0.0242294 -0.0214567 -0.0184804 -0.0174101 -0.017513 -0.0180137 -0.0177135 -0.0166544 -0.0164848 -0.0153627 -0.0142781 -0.0132634 -0.0128158 -0.0124769 -0.0116102 -0.00971244 -0.00837507 -0.00746843 -0.00637649 -0.00370823 -0.0027533 -0.00166742 -0.00147336 -0.000405444
260.5275 0.00025 -0.0107348 -0.0601395 -0.122366 -0.126066 -0.12564 -0.122002 -0.121845 -0.121147 -0.114312 -0.10439 -0.104451 -0.107626 -0.106551 -0.104095 -0.105729 -0.101433 -0.0932432 -0.0896009 -0.08478 -0.0835574 -0.0801879 -0.07873 -0.0774389 -0.0742824 -0.0730021 -0.071314 -0.0671408 -0.0606345 -0.0600538 -0.0615112 -0.0559127 -0.0526688 -0.0516461 -0.0512457 -0.0466933 -0.0473749 -0.047308 -0.0473303 -0.0451457 -0.043975 -0.0403398 -0.038788 -0.0359976 -0.0353349 -0.0345597 -0.0329567 -0.0321167 -0.0355137 -0.0386048 -0.041746 -0.0425823 -0.0434397 -0.0435489 -0.0438988 -0.0451164 -0.0493017 -0.0524855 -0.0518262 -0.0519031 -0.0528308 -0.0525006 -0.0520255 -0.051696 -0.0502204 -0.0487302 -0.0468735 -0.0458671 -0.0440384 -0.0433326 -0.0422071 -0.0394323 -0.0358165 -0.0323021 -0.0309666 -0.0284793 -0.0264493 -0.0243083 -0.0216412 -0.018685 -0.0174936 -0.0174487 -0.0179415 -0.0177264 -0.0166509 -0.016414 -0.0153128 -0.0142809 -0.0131529 -0.0126945 -0.0124439 -0.0116731 -0.0098098 -0.00835238 -0.00742138 -0.00641184 -0.00375778 -0.0027344 -0.0016548 -0.00146861 -0.000404721
260.53 0.00025 -0.01073 -0.0601982 -0.122439 -0.126712 -0.125321 -0.122073 -0.122268 -0.121876 -0.114849 -0.104469 -0.103945 -0.106975 -0.106611 -0.104346 -0.106344 -0.101497 -0.0933961 -0.0900639 -0.0849787 -0.0839856 -0.0805576 -0.0788025 -0.0776106 -0.0745059 -0.0729556 -0.0713372 -0.0671482 -0.0604854 -0.0597704 -0.0609995 -0.0552705 -0.0523944 -0.051589 -0.0508363 -0.046302 -0.0469914 -0.0470447 -0.0472008 -0.0449382 -0.043805 -0.0405212 -0.039009 -0.036127 -0.0352181 -0.0343344 -0.032953 -0.0322447 -0.0355586 -0.0385633 -0.0418671 -0.0427692 -0.0435632 -0.0435779 -0.0438854 -0.0451601 -0.0493126 -0.0522814 -0.0516748 -0.0519221 -0.0528507 -0.0524924 -0.0520193 -0.0516252 -0.0501384 -0.0486717 -0.0468444 -0.0458217 -0.0440428 -0.0432556 -0.0420459 -0.0394875 -0.0361233 -0.0325918 -0.0311138 -0.0284662 -0.0264035 -0.0243746 -0.0218167 -0.0188906 -0.0175911 -0.0173931 -0.0178621 -0.0177362 -0.0166528 -0.0163347 -0.0152576 -0.0142891 -0.0130497 -0.0125737 -0.0124043 -0.0117229 -0.00990773 -0.00833837 -0.00737173 -0.00644349 -0.00380889 -0.00271758 -0.00164232 -0.00146307 -0.000404774
260.5325 0.00025 -0.0107291 -0.0601951 -0.122537 -0.127348 -0.125029 -0.122216 -0.122722 -0.122509 -0.11525 -0.104597 -0.103532 -0.106344 -0.106626 -0.104602 -0.106868 -0.101567 -0.0936068 -0.0905559 -0.0851934 -0.0843905 -0.0809279 -0.0788507 -0.0777862 -0.0747753 -0.072922 -0.0713073 -0.0671373 -0.0604085 -0.0594853 -0.0604402 -0.0546036 -0.052127 -0.0515285 -0.0504192 -0.0459413 -0.0466247 -0.0467858 -0.0470638 -0.0447162 -0.0435822 -0.040664 -0.0392257 -0.0362871 -0.0351334 -0.0341058 -0.0329546 -0.0324007 -0.0356276 -0.0385187 -0.0419777 -0.0429343 -0.0436683 -0.0436045 -0.0439047 -0.0452563 -0.0493233 -0.0520397 -0.0515127 -0.0519558 -0.0528625 -0.0524882 -0.0520088 -0.0515242 -0.0500506 -0.048628 -0.0468458 -0.0457802 -0.0440382 -0.0431759 -0.0418532 -0.0394876 -0.036393 -0.0328973 -0.0312959 -0.0284912 -0.0263704 -0.0244296 -0.0219837 -0.019097 -0.0177012 -0.0173449 -0.0177732 -0.0177414 -0.0166618 -0.0162492 -0.0151947 -0.0143003 -0.0129558 -0.0124558 -0.0123604 -0.0117601 -0.0100042 -0.0083335 -0.0073217 -0.006472 -0.00385999 -0.002702 -0.00163044 -0.00145753 -0.000404003
260.535 0.00025 -0.0107294 -0.0601586 -0.122651 -0.127977 -0.124763 -0.122363 -0.123156 -0.123049 -0.115528 -0.104774 -0.103212 -0.105756 -0.10657 -0.104852 -0.107297 -0.101652 -0.0938786 -0.0910738 -0.0854366 -0.0847604 -0.0813049 -0.0788874 -0.0779643 -0.0750817 -0.0729068 -0.0712291 -0.0671018 -0.0604091 -0.0592006 -0.0598411 -0.0539232 -0.0518576 -0.0514531 -0.050001 -0.0456172 -0.0462766 -0.0465336 -0.0469141 -0.0444866 -0.0433246 -0.0407657 -0.0394235 -0.0364708 -0.0350849 -0.0338813 -0.0329599 -0.0325801 -0.0357212 -0.0384811 -0.0420809 -0.0430725 -0.0437544 -0.0436313 -0.0439563 -0.0454007 -0.0493318 -0.051767 -0.0513461 -0.0520022 -0.052865 -0.0524898 -0.0519958 -0.0513907 -0.0499543 -0.0485964 -0.0468746 -0.0457497 -0.0440267 -0.0430918 -0.0416345 -0.0394373 -0.0366188 -0.0332081 -0.03151 -0.0285581 -0.0263586 -0.0244768 -0.02214 -0.0193 -0.0178226 -0.0173076 -0.0176781 -0.0177413 -0.0166777 -0.0161596 -0.0151233 -0.0143123 -0.0128712 -0.0123413 -0.0123116 -0.0117851 -0.0100971 -0.00833887 -0.00727227 -0.00649715 -0.00391127 -0.00268855 -0.00161877 -0.00145088 -0.000403002
260.5375 0.00025 -0.0107274 -0.0600781 -0.122776 -0.128609 -0.124574 -0.12256 -0.123601 -0.123487 -0.115668 -0.104977 -0.102962 -0.105216 -0.10644 -0.105097 -0.107627 -0.101757 -0.0942114 -0.0916175 -0.0857043 -0.0850894 -0.0816844 -0.0789071 -0.0781371 -0.0754149 -0.0729114 -0.071106 -0.0670438 -0.0604808 -0.0589144 -0.0592009 -0.0532406 -0.0515813 -0.0513507 -0.0495922 -0.0453304 -0.0459482 -0.0462851 -0.0467466 -0.0442565 -0.0430423 -0.0408274 -0.0395982 -0.0366698 -0.0350715 -0.0336706 -0.0329726 -0.0327796 -0.0358309 -0.0384502 -0.0421746 -0.043183 -0.0438265 -0.0436612 -0.0440382 -0.0455867 -0.0493338 -0.0514693 -0.0511757 -0.0520554 -0.052861 -0.052498 -0.0519816 -0.0512272 -0.0498439 -0.0485708 -0.0469294 -0.0457337 -0.0440107 -0.0430061 -0.0413987 -0.0393417 -0.0367952 -0.0335116 -0.031751 -0.0286676 -0.0263731 -0.0245186 -0.0222857 -0.0194989 -0.0179535 -0.0172821 -0.0175765 -0.0177354 -0.0167021 -0.0160682 -0.0150417 -0.0143224 -0.0127968 -0.012232 -0.0122593 -0.0117984 -0.0101845 -0.00835315 -0.00722316 -0.00651821 -0.00396222 -0.00267858 -0.00160775 -0.00144392 -0.000401611
260.54 0.00025 -0.0107184 -0.0599548 -0.122925 -0.129235 -0.124452 -0.12277 -0.124025 -0.123833 -0.115702 -0.10523 -0.102804 -0.104751 -0.106229 -0.105317 -0.107863 -0.101878 -0.0946206 -0.0921799 -0.0860058 -0.0853804 -0.0820672 -0.0789224 -0.0783015 -0.0757647 -0.0729312 -0.0709408 -0.066961 -0.0606151 -0.05862 -0.0585271 -0.052575 -0.0512911 -0.051213 -0.0491916 -0.0450878 -0.045642 -0.0460324 -0.0465549 -0.0440306 -0.0427473 -0.0408487 -0.039742 -0.0368746 -0.0350901 -0.0334824 -0.0329892 -0.0329889 -0.035957 -0.0384357 -0.0422591 -0.0432603 -0.0438849 -0.0436932 -0.0441489 -0.0458114 -0.04933 -0.0511583 -0.0510058 -0.0521094 -0.0528504 -0.052513 -0.0519692 -0.0510368 -0.049717 -0.0485479 -0.0470049 -0.0457345 -0.0439905 -0.0429164 -0.0411513 -0.0392066 -0.0369195 -0.0337964 -0.0320138 -0.028819 -0.026419 -0.0245591 -0.0224222 -0.0196929 -0.0180916 -0.0172678 -0.0174696 -0.0177216 -0.0167331 -0.0159782 -0.0149497 -0.0143283 -0.0127326 -0.0121281 -0.0122049 -0.0118014 -0.0102643 -0.00837649 -0.00717749 -0.00653651 -0.00401146 -0.00267034 -0.00159683 -0.00143671 -0.00040109
260.5425 0.00025 -0.0107041 -0.0597994 -0.123066 -0.129866 -0.124415 -0.122992 -0.124435 -0.124093 -0.115655 -0.105523 -0.10271 -0.104351 -0.105942 -0.105494 -0.108014 -0.102015 -0.0951017 -0.0927619 -0.0863428 -0.0856261 -0.0824519 -0.0789357 -0.0784533 -0.0761115 -0.072976 -0.0707432 -0.066852 -0.0607991 -0.0583279 -0.0578242 -0.0519359 -0.0509892 -0.0510305 -0.0487942 -0.0448868 -0.0453639 -0.0457751 -0.0463343 -0.0438036 -0.042446 -0.0408381 -0.0398521 -0.0370751 -0.0351341 -0.0333213 -0.0330115 -0.0332098 -0.0360928 -0.0384359 -0.0423287 -0.0433058 -0.0439339 -0.0437324 -0.0442908 -0.0460677 -0.0493152 -0.0508387 -0.0508391 -0.0521594 -0.0528364 -0.0525348 -0.0519574 -0.0508267 -0.0495735 -0.0485247 -0.0470942 -0.0457534 -0.043971 -0.0428225 -0.040898 -0.0390397 -0.036993 -0.0340512 -0.032289 -0.0290094 -0.0265019 -0.0246039 -0.0225504 -0.0198799 -0.0182336 -0.0172656 -0.01736 -0.0176987 -0.0167696 -0.0158929 -0.0148494 -0.0143286 -0.0126785 -0.0120302 -0.0121483 -0.0117947 -0.0103347 -0.00840774 -0.00713462 -0.00655079 -0.00405858 -0.00266493 -0.00158698 -0.0014291 -0.000399482
260.545 0.00025 -0.0106835 -0.0596193 -0.123213 -0.130522 -0.124495 -0.123217 -0.124818 -0.124265 -0.115542 -0.105855 -0.102669 -0.104018 -0.105607 -0.1056 -0.108086 -0.10217 -0.0956395 -0.0933545 -0.0867347 -0.0858292 -0.0828395 -0.0789594 -0.078594 -0.0764406 -0.0730349 -0.0705207 -0.0667232 -0.0610145 -0.0580343 -0.0570962 -0.0513269 -0.0506723 -0.0507955 -0.0484026 -0.0447392 -0.0451173 -0.045505 -0.0460878 -0.0435792 -0.0421512 -0.0408078 -0.0399199 -0.0372641 -0.0351992 -0.0331923 -0.0330434 -0.0334389 -0.0362379 -0.0384541 -0.0423845 -0.0433221 -0.0439728 -0.0437773 -0.0444582 -0.0463479 -0.0492905 -0.0505218 -0.050678 -0.0521973 -0.0528169 -0.0525667 -0.0519517 -0.0506026 -0.0494098 -0.0484986 -0.0471923 -0.0457897 -0.0439555 -0.0427258 -0.0406435 -0.0388465 -0.0370189 -0.034267 -0.032569 -0.0292375 -0.0266248 -0.0246579 -0.0226711 -0.0200605 -0.018378 -0.0172758 -0.0172492 -0.0176659 -0.0168106 -0.0158154 -0.0147405 -0.0143192 -0.012633 -0.0119396 -0.012091 -0.0117802 -0.0103952 -0.00844672 -0.00709633 -0.00656222 -0.00410339 -0.00266195 -0.00157781 -0.00142152 -0.000398332
260.5475 0.00025 -0.0106625 -0.0594346 -0.123377 -0.131184 -0.12469 -0.123446 -0.125187 -0.124338 -0.115409 -0.106214 -0.102674 -0.10371 -0.105232 -0.105616 -0.108092 -0.102334 -0.096215 -0.0939611 -0.0871778 -0.0859935 -0.0832218 -0.0790018 -0.0787242 -0.0767466 -0.0731086 -0.0702777 -0.0665779 -0.0612456 -0.0577448 -0.0563508 -0.0507614 -0.050337 -0.0505025 -0.0480156 -0.0446412 -0.044901 -0.0452181 -0.0458151 -0.0433565 -0.0418647 -0.040765 -0.0399462 -0.0374346 -0.0352828 -0.0330947 -0.0330897 -0.0336738 -0.0363851 -0.0384888 -0.0424253 -0.043309 -0.0440061 -0.043836 -0.0446511 -0.0466434 -0.0492526 -0.050212 -0.0505271 -0.0522203 -0.0527923 -0.0526049 -0.0519487 -0.0503721 -0.0492277 -0.0484661 -0.0472931 -0.0458422 -0.0439462 -0.0426274 -0.0403926 -0.0386338 -0.0370012 -0.034439 -0.0328425 -0.0294979 -0.0267877 -0.0247256 -0.022786 -0.0202339 -0.0185215 -0.0172978 -0.0171403 -0.0176222 -0.0168535 -0.0157472 -0.0146242 -0.0142989 -0.0125963 -0.0118568 -0.0120342 -0.0117591 -0.0104444 -0.00849168 -0.00706433 -0.00657028 -0.00414453 -0.00266231 -0.00157003 -0.00141265 -0.000396734
260.55 0.00025 -0.0106381 -0.0592569 -0.123551 -0.131876 -0.125008 -0.123664 -0.125528 -0.124299 -0.115277 -0.106579 -0.102713 -0.103442 -0.104845 -0.105526 -0.108023 -0.102518 -0.0968225 -0.0945886 -0.0876762 -0.0861236 -0.0835861 -0.0790696 -0.0788435 -0.0770141 -0.0731957 -0.0700224 -0.0664235 -0.0614756 -0.0574606 -0.0555968 -0.0502422 -0.0499879 -0.0501478 -0.0476316 -0.0445938 -0.04472 -0.0449064 -0.0455168 -0.0431292 -0.041588 -0.0407209 -0.0399397 -0.037584 -0.0353795 -0.0330254 -0.0331503 -0.0339105 -0.0365362 -0.0385424 -0.0424472 -0.0432689 -0.0440329 -0.0439048 -0.0448655 -0.0469453 -0.0492011 -0.0499172 -0.0503888 -0.0522231 -0.0527623 -0.0526485 -0.0519479 -0.050144 -0.0490322 -0.0484253 -0.0473914 -0.0459047 -0.043946 -0.0425286 -0.0401484 -0.0384068 -0.0369448 -0.0345635 -0.0330974 -0.0297837 -0.0269927 -0.0248145 -0.0229003 -0.0204014 -0.0186623 -0.0173313 -0.0170359 -0.0175675 -0.0168952 -0.0156904 -0.0145036 -0.0142668 -0.0125666 -0.0117815 -0.0119783 -0.0117317 -0.0104814 -0.00854101 -0.00703899 -0.00657575 -0.00418173 -0.0026651 -0.00156369 -0.00140408 -0.000395758
260.5525 0.00025 -0.0106182 -0.0590615 -0.123727 -0.132591 -0.125458 -0.123901 -0.12585 -0.124146 -0.115176 -0.106954 -0.10279 -0.103205 -0.104475 -0.105343 -0.107873 -0.102706 -0.0974546 -0.0952349 -0.0882277 -0.0862302 -0.0839288 -0.0791782 -0.0789571 -0.0772432 -0.0732889 -0.0697582 -0.0662579 -0.0616872 -0.057186 -0.0548402 -0.0497652 -0.0496265 -0.0497335 -0.0472553 -0.0445968 -0.044575 -0.0445728 -0.0451945 -0.0428956 -0.041321 -0.0406757 -0.0399015 -0.0377069 -0.0354937 -0.0329794 -0.0332244 -0.034147 -0.0366906 -0.0386122 -0.04245 -0.0432045 -0.0440572 -0.0439881 -0.0450945 -0.047249 -0.0491396 -0.0496425 -0.0502673 -0.0522028 -0.0527248 -0.0526969 -0.0519466 -0.0499258 -0.0488248 -0.0483734 -0.0474824 -0.0459735 -0.0439536 -0.0424296 -0.039915 -0.0381724 -0.0368557 -0.0346427 -0.0333245 -0.0300889 -0.0272348 -0.0249277 -0.0230153 -0.0205626 -0.0187981 -0.0173741 -0.0169381 -0.0175028 -0.0169348 -0.015647 -0.0143803 -0.014221 -0.0125427 -0.0117139 -0.0119237 -0.0117002 -0.0105067 -0.00859349 -0.00702103 -0.00657724 -0.00421364 -0.00267131 -0.00155883 -0.00139436 -0.000393802
260.555 0.00025 -0.0106024 -0.0588708 -0.123941 -0.133357 -0.126053 -0.124168 -0.12614 -0.12389 -0.115127 -0.107335 -0.102893 -0.102993 -0.104127 -0.105072 -0.107632 -0.102899 -0.0981008 -0.0958992 -0.0888384 -0.0863187 -0.0842389 -0.0793275 -0.0790632 -0.0774277 -0.0733863 -0.0694927 -0.0660907 -0.0618678 -0.056913 -0.0540902 -0.0493296 -0.0492582 -0.0492642 -0.0468754 -0.0446404 -0.0444674 -0.0442091 -0.0448475 -0.0426622 -0.0410657 -0.0406413 -0.0398388 -0.0378004 -0.035622 -0.0329544 -0.0333146 -0.0343813 -0.036846 -0.0386922 -0.0424334 -0.0431226 -0.0440846 -0.0440889 -0.0453364 -0.0475448 -0.0490692 -0.0493902 -0.0501632 -0.0521596 -0.0526765 -0.0527448 -0.051943 -0.049724 -0.0486131 -0.048308 -0.0475635 -0.0460437 -0.0439681 -0.0423305 -0.0396924 -0.0379355 -0.0367368 -0.0346791 -0.0335153 -0.0304049 -0.0275139 -0.02507 -0.0231356 -0.0207199 -0.0189278 -0.017425 -0.0168498 -0.017427 -0.0169677 -0.0156163 -0.0142576 -0.0141625 -0.0125232 -0.0116531 -0.0118711 -0.0116655 -0.0105204 -0.00864709 -0.00701123 -0.00657718 -0.0042415 -0.00268062 -0.00155608 -0.00138497 -0.00039184
260.5575 0.00025 -0.0105853 -0.0586924 -0.124175 -0.13413 -0.126783 -0.12446 -0.1264 -0.123549 -0.115129 -0.107729 -0.10298 -0.102795 -0.10382 -0.104732 -0.107289 -0.10309 -0.0987414 -0.0965759 -0.0895056 -0.0864039 -0.0845055 -0.0795285 -0.0791704 -0.0775671 -0.0734803 -0.0692355 -0.0659285 -0.0620021 -0.0566365 -0.0533525 -0.0489355 -0.0488867 -0.0487479 -0.0464969 -0.0447174 -0.0443982 -0.0438124 -0.0444738 -0.0424285 -0.0408215 -0.0406123 -0.0397614 -0.0378603 -0.0357607 -0.0329465 -0.0334144 -0.0346143 -0.0370039 -0.0387811 -0.042397 -0.0430249 -0.044114 -0.0442063 -0.0455882 -0.0478286 -0.0489922 -0.0491641 -0.0500767 -0.0520967 -0.052618 -0.0527919 -0.0519353 -0.0495442 -0.0484068 -0.0482309 -0.047631 -0.0461108 -0.0439871 -0.0422319 -0.0394833 -0.0377011 -0.0365955 -0.0346792 -0.0336619 -0.0307198 -0.0278212 -0.0252449 -0.0232668 -0.0208748 -0.0190503 -0.0174823 -0.0167736 -0.0173421 -0.0169907 -0.0155989 -0.0141381 -0.0140908 -0.0125061 -0.0115986 -0.0118205 -0.0116288 -0.0105225 -0.00869972 -0.00700951 -0.00657413 -0.00426366 -0.00269272 -0.00155524 -0.00137504 -0.000389824
260.56 0.00025 -0.0105721 -0.0585178 -0.124424 -0.134928 -0.127641 -0.124829 -0.126592 -0.123148 -0.115169 -0.108111 -0.10303 -0.102628 -0.103557 -0.10435 -0.106856 -0.103275 -0.0993613 -0.0972751 -0.0902348 -0.0864871 -0.0847232 -0.0797819 -0.0792682 -0.0776605 -0.0735673 -0.068986 -0.0657753 -0.0620851 -0.05635 -0.0526422 -0.048575 -0.0485136 -0.048194 -0.0461252 -0.0448242 -0.0443637 -0.0433906 -0.0440714 -0.0421941 -0.0405882 -0.0405882 -0.0396707 -0.0378831 -0.0359175 -0.0329666 -0.0335215 -0.0348398 -0.0371613 -0.0388715 -0.0423383 -0.0429167 -0.0441493 -0.0443395 -0.0458459 -0.0480945 -0.0489135 -0.0489666 -0.0500076 -0.0520151 -0.0525442 -0.0528323 -0.0519228 -0.0493907 -0.0482136 -0.0481406 -0.0476811 -0.0461693 -0.044006 -0.0421341 -0.0392897 -0.0374736 -0.0364351 -0.0346487 -0.0337606 -0.0310234 -0.0281537 -0.0254521 -0.0234121 -0.0210292 -0.0191661 -0.0175435 -0.0167095 -0.0172505 -0.0170023 -0.015594 -0.0140239 -0.0140083 -0.0124911 -0.0115496 -0.0117715 -0.0115913 -0.0105141 -0.00875067 -0.00701739 -0.00656933 -0.00428065 -0.00270756 -0.0015559 -0.0013651 -0.000387942
260.5625 0.00025 -0.0105645 -0.0583567 -0.124705 -0.135725 -0.128626 -0.125281 -0.126701 -0.122729 -0.115261 -0.108506 -0.10303 -0.102483 -0.103328 -0.10393 -0.106337 -0.103459 -0.0999493 -0.0979959 -0.0910155 -0.086577 -0.0848911 -0.0800857 -0.0793723 -0.0777106 -0.0736386 -0.0687459 -0.0656342 -0.0621073 -0.0560486 -0.0519624 -0.0482409 -0.0481439 -0.0476104 -0.0457595 -0.0449467 -0.0443608 -0.0429446 -0.0436453 -0.0419586 -0.040374 -0.0405676 -0.039581 -0.0378726 -0.0360865 -0.0330194 -0.0336294 -0.0350575 -0.0373212 -0.0389602 -0.0422601 -0.0428029 -0.044193 -0.0444869 -0.046106 -0.0483373 -0.048836 -0.0487968 -0.0499522 -0.0519189 -0.0524593 -0.0528625 -0.0518986 -0.0492636 -0.0480428 -0.0480392 -0.0477102 -0.0462163 -0.0440219 -0.042037 -0.0391129 -0.0372548 -0.0362612 -0.0345953 -0.0338108 -0.0313055 -0.0285001 -0.0256915 -0.0235782 -0.0211861 -0.019276 -0.017606 -0.0166603 -0.0171539 -0.0170001 -0.0155992 -0.0139168 -0.0139167 -0.0124768 -0.0115055 -0.0117241 -0.0115536 -0.0104974 -0.0087982 -0.00703372 -0.00656383 -0.00429216 -0.00272429 -0.0015587 -0.00135501 -0.000385362
260.565 0.00025 -0.0105586 -0.0582148 -0.125032 -0.13649 -0.129694 -0.125833 -0.126743 -0.122315 -0.115383 -0.108912 -0.102961 -0.102359 -0.103146 -0.103477 -0.105743 -0.103641 -0.100479 -0.0987283 -0.0918492 -0.0866838 -0.085007 -0.0804291 -0.0794899 -0.0777286 -0.0736906 -0.0685163 -0.0655033 -0.0620711 -0.055722 -0.051315 -0.0479317 -0.0477828 -0.0470084 -0.0454013 -0.0450818 -0.0443857 -0.042483 -0.0431847 -0.0417167 -0.0401763 -0.0405448 -0.0394917 -0.0378288 -0.0362627 -0.0331076 -0.0337364 -0.0352641 -0.03748 -0.0390414 -0.0421615 -0.0426838 -0.0442472 -0.0446509 -0.0463619 -0.0485526 -0.0487639 -0.0486576 -0.0499081 -0.0518123 -0.0523625 -0.0528791 -0.0518653 -0.0491639 -0.0479006 -0.0479338 -0.0477173 -0.0462491 -0.0440302 -0.0419355 -0.038953 -0.0370473 -0.0360776 -0.0345246 -0.0338168 -0.0315574 -0.0288547 -0.0259613 -0.0237703 -0.0213481 -0.0193796 -0.0176677 -0.0166259 -0.0170545 -0.0169823 -0.0156116 -0.0138181 -0.0138194 -0.0124618 -0.011464 -0.0116775 -0.0115159 -0.0104723 -0.00884107 -0.00705874 -0.00655718 -0.00429762 -0.00274314 -0.00156396 -0.001345 -0.000383168
260.5675 0.00025 -0.010555 -0.0580877 -0.125408 -0.137213 -0.130826 -0.126469 -0.126715 -0.121916 -0.115514 -0.109319 -0.102827 -0.102273 -0.103001 -0.103011 -0.1051 -0.103803 -0.100938 -0.0994607 -0.0927211 -0.0868105 -0.0850826 -0.0808141 -0.0796183 -0.0777125 -0.0737141 -0.0683017 -0.0653877 -0.0619799 -0.0553659 -0.0507048 -0.0476431 -0.0474279 -0.0463987 -0.045052 -0.0452187 -0.044431 -0.0420138 -0.0426916 -0.0414695 -0.0400041 -0.0405229 -0.0394055 -0.0377575 -0.0364433 -0.0332367 -0.0338395 -0.0354519 -0.0376375 -0.0391104 -0.0420435 -0.0425686 -0.0443163 -0.0448281 -0.0466125 -0.04874 -0.0487007 -0.0485494 -0.0498719 -0.0516964 -0.0522562 -0.052878 -0.0518175 -0.0490906 -0.0477952 -0.0478302 -0.0477011 -0.0462657 -0.0440266 -0.0418294 -0.038811 -0.0368515 -0.0358884 -0.0344428 -0.0337845 -0.0317695 -0.0292066 -0.0262556 -0.0239917 -0.0215183 -0.0194782 -0.0177269 -0.0166061 -0.0169562 -0.0169492 -0.0156297 -0.0137289 -0.0137175 -0.0124456 -0.0114255 -0.0116312 -0.0114791 -0.010441 -0.00887888 -0.00709156 -0.0065495 -0.00429806 -0.00276393 -0.00157178 -0.00133569 -0.000380716