260.5025 0.00025 0.00857086 -0.00468609 -0.040413 -0.037837 -0.00240811 0.0209454 0.0293894 0.0324226 0.0308561 0.0430993 0.0560862 0.0467651 0.0326164 0.00771635 -0.0188585 -0.0354851 -0.0441907 -0.0472224 -0.0402489 -0.0443696 -0.0515267 -0.0501316 -0.0480739 -0.0501738 -0.0490305 -0.0531179 -0.0569923 -0.0559965 -0.0558978 -0.0533098 -0.0585084 -0.0623166 -0.0593517 -0.0575431 -0.0641301 -0.0707941 -0.0805508 -0.0839 -0.0759943 -0.0633037 -0.0489003 -0.0383911 -0.029751 -0.0233322 -0.0142586 -0.00325724 -0.00629449 -0.0070614 -5.40192e-05 0.00665347 0.0111706 0.0169923 0.0234649 0.0257227 0.0231734 0.016711 0.00741212 -0.00664415 -0.016133 -0.0231249 -0.0298366 -0.0331923 -0.0420754 -0.0576374 -0.0689248 -0.0854204 -0.100084 -0.109519 -0.116978 -0.120777 -0.117933 -0.116742 -0.11675 -0.111396 -0.104403 -0.100308 -0.0927864 -0.0841029 -0.0743566 -0.0607336 -0.0452809 -0.0283205 -0.0149664 -0.00455127 0.000375339 0.000239327 0.00434291 0.0119523 0.0197267 0.0289969 0.0344546 0.0384022 0.0401387 0.0485887 0.0612751 0.0751242 0.0922608 0.111603 0.13867 0.157538
260.505 0.00025 0.00862608 -0.00486664 -0.0406227 -0.0375186 -0.00176044 0.0210987 0.0290721 0.0321775 0.0308242 0.0436911 0.0565463 0.0472763 0.0328088 0.00704543 -0.0192232 -0.0359622 -0.0449027 -0.0476354 -0.0411418 -0.0453887 -0.0516286 -0.0496972 -0.0477927 -0.0500212 -0.0488501 -0.0528301 -0.0567518 -0.0558707 -0.0559787 -0.0534008 -0.0587052 -0.0620586 -0.0588478 -0.0571207 -0.0638009 -0.0707692 -0.0806149 -0.0837236 -0.0755823 -0.0628529 -0.0485537 -0.0383652 -0.0299337 -0.0233446 -0.0142636 -0.00319727 -0.00617488 -0.0067259 0.000409988 0.0066819 0.0109401 0.016876 0.0235263 0.0260176 0.0238014 0.0174339 0.00795871 -0.00653987 -0.0161446 -0.0228893 -0.0294648 -0.0326066 -0.0412718 -0.056891 -0.0684919 -0.0852644 -0.100118 -0.10985 -0.117299 -0.1211 -0.118703 -0.117602 -0.117421 -0.112298 -0.105527 -0.101302 -0.0935108 -0.0845722 -0.0747607 -0.06116 -0.0457701 -0.0286502 -0.0149271 -0.00443404 0.00036678 0.000319347 0.00464329 0.0123526 0.0201233 0.0293603 0.0348301 0.0385923 0.0400437 0.0484895 0.0612291 0.0750331 0.0920817 0.111409 0.138509 0.157604
260.5075 0.00025 0.00866547 -0.00506669 -0.0408088 -0.0371565 -0.00107853 0.0212569 0.0286577 0.03187 0.0308647 0.0443846 0.0569678 0.0476838 0.0329444 0.00637448 -0.0196084 -0.0364364 -0.0455537 -0.0479763 -0.0420161 -0.0464457 -0.0517445 -0.0492716 -0.047531 -0.0498931 -0.0486667 -0.0525222 -0.0565015 -0.0557419 -0.0560607 -0.0535294 -0.0588912 -0.0617189 -0.0583085 -0.0567221 -0.0635156 -0.070773 -0.0806297 -0.0835019 -0.075159 -0.0624112 -0.0482104 -0.0383419 -0.0301383 -0.023368 -0.0142817 -0.00317252 -0.00606018 -0.00635564 0.000894205 0.00671 0.0107082 0.0167428 0.0235676 0.0263129 0.024429 0.0181476 0.00848252 -0.00642118 -0.0161258 -0.0226682 -0.029115 -0.0320417 -0.0404806 -0.0561359 -0.0680523 -0.0851036 -0.100142 -0.110168 -0.11758 -0.121357 -0.119451 -0.118501 -0.118121 -0.113202 -0.106659 -0.10231 -0.0942377 -0.085027 -0.0751505 -0.0615868 -0.0462565 -0.0289724 -0.0148883 -0.00433339 0.000341599 0.000411193 0.0049593 0.0127472 0.0205051 0.0297151 0.0352049 0.0387905 0.0399637 0.0483917 0.0611772 0.0749418 0.0919015 0.111213 0.138345 0.157668
260.51 0.00025 0.00868836 -0.00527928 -0.0409653 -0.0367542 -0.000379052 0.0214218 0.0281539 0.0314988 0.0309802 0.0451867 0.0573461 0.0479726 0.0330191 0.005723 -0.0200115 -0.0369113 -0.0461471 -0.0482592 -0.0428666 -0.0475274 -0.0518807 -0.0488583 -0.0472839 -0.0497871 -0.0484796 -0.0521993 -0.0562466 -0.0556075 -0.0561392 -0.0536958 -0.0590651 -0.0612983 -0.0577352 -0.056348 -0.0632757 -0.070803 -0.0805924 -0.0832369 -0.0747274 -0.0619779 -0.047869 -0.0383152 -0.0303673 -0.0234075 -0.0143109 -0.00318189 -0.00595063 -0.00595016 0.00139579 0.00673662 0.0104768 0.0165933 0.0235915 0.0266115 0.0250526 0.0188467 0.00898422 -0.00628332 -0.0160749 -0.0224617 -0.0287865 -0.031499 -0.0397069 -0.0553755 -0.0676029 -0.0849338 -0.100156 -0.110476 -0.117825 -0.121549 -0.120165 -0.119431 -0.118855 -0.114114 -0.107799 -0.10333 -0.0949677 -0.0854697 -0.0755264 -0.0620146 -0.0467393 -0.0292851 -0.0148507 -0.00425118 0.000301786 0.000516984 0.00528978 0.0131355 0.020873 0.0300607 0.0355764 0.0389964 0.0399001 0.0482965 0.0611194 0.0748499 0.0917202 0.111015 0.138178 0.157728
260.5125 0.00025 0.00869763 -0.00550086 -0.041088 -0.0363123 0.000319583 0.0215913 0.0275741 0.031067 0.0311697 0.0461001 0.0576821 0.048127 0.0330259 0.00510842 -0.0204263 -0.0373904 -0.0466854 -0.0484972 -0.0436908 -0.0486213 -0.0520437 -0.0484614 -0.0470452 -0.0497 -0.0482877 -0.0518667 -0.0559925 -0.0554668 -0.05621 -0.0538986 -0.0592258 -0.0607999 -0.0571293 -0.0559983 -0.0630824 -0.0708557 -0.0805005 -0.0829308 -0.0742904 -0.0615527 -0.0475286 -0.0382791 -0.0306206 -0.0234689 -0.0143506 -0.00322463 -0.0058456 -0.00550927 0.00191138 0.00676056 0.0102482 0.0164289 0.0236006 0.0269157 0.0256687 0.019526 0.00946528 -0.00612188 -0.0159912 -0.0222694 -0.0284779 -0.0309802 -0.0389552 -0.0546135 -0.0671411 -0.0847503 -0.100163 -0.110778 -0.118041 -0.121676 -0.120836 -0.120382 -0.119626 -0.11504 -0.108945 -0.104361 -0.0957013 -0.0859026 -0.0758888 -0.0624434 -0.047218 -0.0295865 -0.0148152 -0.00418916 0.000249487 0.000638568 0.00563363 0.0135166 0.0212282 0.0303968 0.0359418 0.0392091 0.0398543 0.0482053 0.0610556 0.0747571 0.0915379 0.110814 0.138009 0.157787
260.515 0.00025 0.00869087 -0.00573065 -0.0411673 -0.0358314 0.000998977 0.0217625 0.0269363 0.0305798 0.0314291 0.0471243 0.0579804 0.0481348 0.0329554 0.00454374 -0.020843 -0.0378776 -0.0471697 -0.0487022 -0.0444884 -0.0497167 -0.0522404 -0.0480836 -0.046808 -0.0496279 -0.0480907 -0.0515291 -0.0557446 -0.05532 -0.0562688 -0.0541331 -0.0593728 -0.0602293 -0.0564918 -0.0556719 -0.0629366 -0.0709279 -0.0803528 -0.0825852 -0.0738512 -0.061136 -0.0471892 -0.0382285 -0.0308956 -0.0235569 -0.0144015 -0.00329989 -0.00574388 -0.00503317 0.00243713 0.00678078 0.0100247 0.016251 0.0235978 0.0272272 0.0262738 0.020181 0.00992768 -0.00593318 -0.0158748 -0.0220908 -0.0281878 -0.030487 -0.0382299 -0.0538537 -0.0666655 -0.0845486 -0.100162 -0.111079 -0.118232 -0.121745 -0.121456 -0.121343 -0.120433 -0.115984 -0.110101 -0.105401 -0.0964389 -0.0863283 -0.0762385 -0.0628733 -0.0476921 -0.0298751 -0.0147825 -0.00414866 0.00018693 0.000777492 0.00598968 0.0138897 0.0215715 0.0307231 0.0362988 0.0394277 0.0398273 0.0481193 0.0609859 0.0746633 0.0913549 0.110611 0.137836 0.157842
260.5175 0.00025 0.00866953 -0.00595972 -0.0412079 -0.0353121 0.00164162 0.021931 0.0262592 0.0300482 0.0317518 0.0482532 0.0582486 0.0479884 0.0327959 0.00403674 -0.0212494 -0.0383751 -0.0476018 -0.0488827 -0.0452607 -0.0508057 -0.0524762 -0.0477282 -0.0465659 -0.049566 -0.0478888 -0.0511911 -0.0555077 -0.0551692 -0.0563118 -0.0543928 -0.0595051 -0.059594 -0.0558239 -0.0553672 -0.0628379 -0.0710167 -0.0801486 -0.0822017 -0.0734115 -0.0607281 -0.0468521 -0.0381598 -0.0311869 -0.0236754 -0.0144661 -0.00340723 -0.00564376 -0.00452246 0.0029689 0.00679642 0.00980907 0.0160617 0.0235862 0.0275466 0.0268643 0.0208083 0.0103736 -0.00571447 -0.0157267 -0.0219247 -0.0279142 -0.0300209 -0.0375346 -0.0530999 -0.0661755 -0.0843245 -0.100149 -0.11138 -0.118406 -0.121762 -0.122019 -0.122299 -0.121275 -0.116953 -0.111265 -0.106448 -0.0971806 -0.0867496 -0.0765763 -0.0633037 -0.048161 -0.0301495 -0.0147535 -0.00413062 0.000116387 0.00093492 0.00635674 0.0142541 0.0219041 0.0310396 0.036645 0.0396514 0.0398202 0.0480401 0.0609104 0.074568 0.0911712 0.110405 0.137661 0.157895
260.52 0.00025 0.00863471 -0.00618702 -0.0412077 -0.0347569 0.00223401 0.02209 0.025563 0.0294853 0.0321304 0.0494748 0.0584973 0.0476872 0.0325341 0.0035904 -0.0216319 -0.0388862 -0.0479822 -0.0490447 -0.0460109 -0.0518815 -0.0527562 -0.0473988 -0.0463121 -0.0495091 -0.0476819 -0.0508565 -0.0552873 -0.0550171 -0.0563356 -0.0546696 -0.0596217 -0.0589037 -0.055127 -0.0550812 -0.0627856 -0.0711193 -0.0798883 -0.0817816 -0.0729727 -0.0603293 -0.0465199 -0.038071 -0.0314867 -0.0238262 -0.0145481 -0.00354646 -0.00554308 -0.00397827 0.00350224 0.00680704 0.00960383 0.0158633 0.0235684 0.0278737 0.0274373 0.0214055 0.0108052 -0.00546348 -0.0155481 -0.0217698 -0.0276549 -0.0295838 -0.0368729 -0.0523557 -0.0656712 -0.084074 -0.100124 -0.111684 -0.118569 -0.121735 -0.122522 -0.123237 -0.122149 -0.117952 -0.112441 -0.1075 -0.0979264 -0.087169 -0.0769033 -0.0637342 -0.0486244 -0.0304091 -0.014729 -0.00413542 4.01275e-05 0.00111159 0.00673365 0.0146093 0.0222269 0.0313463 0.0369783 0.0398791 0.0398335 0.0479688 0.0608295 0.0744712 0.090987 0.110197 0.137483 0.157946
260.5225 0.00025 0.00858676 -0.00640858 -0.0411661 -0.0341698 0.00276476 0.0222328 0.0248675 0.0289054 0.0325582 0.0507718 0.058736 0.0472381 0.0321568 0.00320341 -0.0219779 -0.0394112 -0.0483134 -0.049192 -0.0467427 -0.0529396 -0.0530843 -0.0470983 -0.0460413 -0.049452 -0.0474705 -0.0505282 -0.0550874 -0.0548676 -0.0563377 -0.0549534 -0.0597211 -0.0581695 -0.0544025 -0.0548112 -0.0627778 -0.0712332 -0.0795732 -0.0813261 -0.0725354 -0.0599398 -0.0461955 -0.0379629 -0.0317857 -0.0240086 -0.0146526 -0.00371801 -0.00543926 -0.00340227 0.00403238 0.00681235 0.00941195 0.0156588 0.023547 0.0282068 0.0279898 0.0219712 0.0112247 -0.00517882 -0.0153403 -0.0216242 -0.0274077 -0.0291769 -0.0362483 -0.0516243 -0.0651529 -0.0837945 -0.100082 -0.11199 -0.118726 -0.121673 -0.122962 -0.124145 -0.123047 -0.118985 -0.113631 -0.108556 -0.0986763 -0.0875896 -0.0772212 -0.0641641 -0.0490814 -0.0306534 -0.0147098 -0.00416302 -3.957e-05 0.00130787 0.00711925 0.0149548 0.0225408 0.0316431 0.0372969 0.0401097 0.0398677 0.0479067 0.0607435 0.0743725 0.0908024 0.109984 0.137302 0.157993
260.525 0.00025 0.00852431 -0.00661593 -0.0410872 -0.0335557 0.00322544 0.0223517 0.0241912 0.0283258 0.0330291 0.0521232 0.0589714 0.0466564 0.0316528 0.00286998 -0.0222764 -0.0399501 -0.0485994 -0.0493252 -0.04746 -0.0539776 -0.0534631 -0.0468295 -0.0457492 -0.0493888 -0.0472548 -0.0502092 -0.0549121 -0.0547252 -0.0563167 -0.0552328 -0.0598023 -0.0574029 -0.0536519 -0.0545538 -0.0628117 -0.0713557 -0.0792063 -0.0808365 -0.0720994 -0.0595589 -0.0458822 -0.0378391 -0.0320741 -0.0242184 -0.0147852 -0.00392306 -0.00532961 -0.00279671 0.00455434 0.00681266 0.00923638 0.0154516 0.0235243 0.0285437 0.0285194 0.022505 0.0116342 -0.00486021 -0.0151047 -0.0214859 -0.0271706 -0.0288016 -0.0356638 -0.0509089 -0.0646216 -0.0834839 -0.10002 -0.112297 -0.118882 -0.121587 -0.123343 -0.125009 -0.123961 -0.120056 -0.114838 -0.109616 -0.0994303 -0.0880139 -0.0775316 -0.0645923 -0.0495315 -0.0308824 -0.0146967 -0.00421287 -0.000120398 0.00152379 0.00751242 0.0152903 0.0228468 0.0319302 0.0375992 0.040342 0.0399229 0.0478551 0.0606527 0.0742719 0.0906176 0.109769 0.137118 0.158039
260.5275 0.00025 0.00844861 -0.00680632 -0.0409688 -0.0329224 0.00360724 0.0224399 0.0235524 0.027763 0.0335374 0.0535068 0.0592057 0.0459632 0.0310156 0.00258117 -0.0225196 -0.0405017 -0.0488451 -0.0494444 -0.0481652 -0.054994 -0.0538942 -0.0465955 -0.0454323 -0.049314 -0.0470354 -0.0499014 -0.0547643 -0.0545946 -0.0562728 -0.0554956 -0.059864 -0.056616 -0.052877 -0.0543061 -0.0628842 -0.0714836 -0.078792 -0.0803139 -0.0716636 -0.059185 -0.0455829 -0.0377058 -0.0323434 -0.0244483 -0.0149512 -0.00416339 -0.00521175 -0.00216449 0.00506368 0.00680893 0.00907993 0.0152453 0.0235022 0.0288814 0.029024 0.0230076 0.0120351 -0.004508 -0.0148422 -0.0213529 -0.0269419 -0.0284586 -0.0351223 -0.0502125 -0.0640782 -0.083141 -0.0999357 -0.112603 -0.119039 -0.121486 -0.12367 -0.125819 -0.12488 -0.121164 -0.116066 -0.110678 -0.100188 -0.0884448 -0.0778365 -0.0650177 -0.0499739 -0.0310964 -0.0146907 -0.00428387 -0.000200103 0.00175895 0.00791197 0.0156155 0.0231457 0.0322076 0.0378841 0.0405749 0.0399991 0.0478149 0.0605578 0.0741691 0.0904326 0.10955 0.136931 0.158082
260.53 0.00025 0.00835951 -0.00697815 -0.0408057 -0.0322773 0.00390203 0.0224923 0.0229673 0.0272325 0.0340775 0.054901 0.0594343 0.0451823 0.0302466 0.00232635 -0.0227034 -0.0410635 -0.0490552 -0.0495495 -0.0488609 -0.0559873 -0.0543785 -0.0463994 -0.0450888 -0.0492227 -0.0468137 -0.0496063 -0.0546456 -0.0544803 -0.0562072 -0.055729 -0.0599043 -0.0558206 -0.0520796 -0.0540649 -0.0629913 -0.0716133 -0.0783359 -0.0797596 -0.071227 -0.0588162 -0.045299 -0.0375723 -0.0325876 -0.0246874 -0.0151541 -0.00444158 -0.00508419 -0.00150934 0.00555621 0.00680246 0.00894547 0.0150439 0.0234819 0.0292158 0.0295021 0.0234809 0.0124288 -0.00412349 -0.0145536 -0.0212229 -0.0267201 -0.0281481 -0.0346263 -0.049538 -0.063524 -0.0827653 -0.0998258 -0.112904 -0.1192 -0.121379 -0.123948 -0.126569 -0.125795 -0.122309 -0.117317 -0.111743 -0.100949 -0.0888847 -0.0781382 -0.0654394 -0.0504076 -0.0312962 -0.0146927 -0.00437449 -0.000276546 0.0020126 0.0083168 0.0159306 0.0234382 0.0324755 0.0381504 0.0408074 0.0400958 0.0477872 0.0604591 0.074064 0.0902476 0.109327 0.13674 0.158123
260.5325 0.00025 0.00825816 -0.00712796 -0.0405951 -0.0316303 0.00410208 0.0225072 0.0224519 0.0267478 0.0346447 0.056285 0.0596476 0.0443381 0.0293562 0.00209286 -0.022829 -0.0416324 -0.0492363 -0.0496403 -0.0495475 -0.0569556 -0.0549149 -0.0462452 -0.0447191 -0.0491107 -0.04659 -0.0493251 -0.0545572 -0.0543866 -0.0561221 -0.0559214 -0.0599221 -0.0550276 -0.0512619 -0.053827 -0.063129 -0.0717412 -0.0778447 -0.0791748 -0.0707884 -0.0584501 -0.0450298 -0.0374481 -0.0328046 -0.0249229 -0.0153944 -0.0047604 -0.00494675 -0.000835673 0.00602811 0.00679481 0.00883546 0.0148515 0.0234643 0.0295427 0.0299522 0.0239276 0.0128167 -0.00370872 -0.0142391 -0.0210935 -0.0265046 -0.0278701 -0.0341777 -0.0488885 -0.0629601 -0.0823567 -0.0996883 -0.113196 -0.119365 -0.121275 -0.124187 -0.127252 -0.126691 -0.123487 -0.118595 -0.112812 -0.101714 -0.089336 -0.0784394 -0.0658561 -0.0508314 -0.0314828 -0.0147037 -0.00448276 -0.000347577 0.00228364 0.00872571 0.0162356 0.0237253 0.032734 0.0383976 0.0410382 0.0402127 0.0477726 0.0603573 0.0739567 0.0900626 0.109101 0.136546 0.158162
260.535 0.00025 0.00814689 -0.00725114 -0.0403347 -0.0309931 0.00420221 0.0224842 0.0220189 0.0263203 0.0352342 0.0576385 0.059831 0.0434545 0.0283642 0.00186856 -0.0229015 -0.0422042 -0.0493947 -0.0497178 -0.050224 -0.0578975 -0.0555012 -0.0461363 -0.0443256 -0.048974 -0.0463643 -0.0490589 -0.0544993 -0.0543166 -0.0560192 -0.0560622 -0.0599163 -0.054247 -0.0504263 -0.0535888 -0.0632925 -0.0718633 -0.0773263 -0.0785614 -0.0703465 -0.0580855 -0.0447728 -0.0373417 -0.0329967 -0.025142 -0.0156692 -0.00512202 -0.00480074 -0.000148785 0.00647625 0.00678822 0.00875243 0.0146723 0.0234499 0.0298574 0.0303736 0.0243509 0.0131995 -0.00326666 -0.0138988 -0.020962 -0.0262949 -0.0276239 -0.033778 -0.0482669 -0.0623881 -0.0819159 -0.0995218 -0.113476 -0.119533 -0.121179 -0.124397 -0.127867 -0.127557 -0.124691 -0.119901 -0.113886 -0.102481 -0.089801 -0.0787428 -0.0662668 -0.0512442 -0.0316574 -0.0147247 -0.00460635 -0.000411129 0.0025708 0.00913745 0.0165309 0.0240075 0.032983 0.038625 0.0412666 0.040349 0.047772 0.060253 0.0738471 0.0898779 0.108871 0.136348 0.158199
260.5375 0.00025 0.00802579 -0.00734625 -0.0400182 -0.0303769 0.0041998 0.0224245 0.0216801 0.0259588 0.0358417 0.0589434 0.0599675 0.0425514 0.0272966 0.00164257 -0.0229281 -0.0427758 -0.0495373 -0.0497843 -0.0508896 -0.05881 -0.0561346 -0.0460761 -0.0439126 -0.0488094 -0.0461369 -0.0488086 -0.0544712 -0.054273 -0.055901 -0.0561432 -0.0598861 -0.0534866 -0.0495756 -0.0533468 -0.0634768 -0.0719749 -0.0767885 -0.0779221 -0.0699 -0.0577215 -0.0445238 -0.03726 -0.0331705 -0.0253339 -0.0159716 -0.00552737 -0.00464903 0.000544854 0.00689829 0.00678549 0.00869869 0.0145104 0.0234391 0.0301548 0.0307656 0.0247546 0.0135781 -0.00280062 -0.0135325 -0.0208257 -0.0260911 -0.0274087 -0.0334279 -0.0476763 -0.0618097 -0.0814437 -0.0993254 -0.113741 -0.119703 -0.121095 -0.124588 -0.128418 -0.128384 -0.125913 -0.121237 -0.114967 -0.103253 -0.0902815 -0.0790513 -0.0666707 -0.0516446 -0.0318215 -0.0147568 -0.00474265 -0.000465197 0.0028726 0.00955077 0.0168169 0.0242856 0.0332226 0.0388327 0.0414915 0.0405038 0.0477858 0.0601467 0.0737353 0.0896935 0.108636 0.136147 0.158234
260.54 0.00025 0.00789813 -0.00740685 -0.0396494 -0.0297915 0.00409307 0.0223304 0.0214435 0.0256715 0.0364646 0.0601814 0.0600403 0.0416449 0.0261866 0.00140505 -0.0229191 -0.0433433 -0.0496721 -0.0498435 -0.0515415 -0.0596885 -0.0568115 -0.0460677 -0.0434862 -0.0486147 -0.0459073 -0.0485747 -0.0544721 -0.0542574 -0.0557693 -0.0561579 -0.0598314 -0.0527528 -0.0487135 -0.0530977 -0.0636763 -0.0720715 -0.0762387 -0.0772597 -0.0694479 -0.0573588 -0.0442779 -0.0372066 -0.0333353 -0.0254914 -0.0162907 -0.00597526 -0.00449625 0.0012378 0.00729235 0.00678956 0.00867626 0.0143698 0.0234319 0.03043 0.0311278 0.0251426 0.0139534 -0.00231406 -0.01314 -0.020682 -0.0258937 -0.0272235 -0.0331272 -0.0471197 -0.0612269 -0.0809411 -0.0990986 -0.113986 -0.119873 -0.121026 -0.124768 -0.128908 -0.129161 -0.127142 -0.122602 -0.116058 -0.104028 -0.0907792 -0.0793679 -0.0670672 -0.0520313 -0.0319768 -0.014801 -0.00488888 -0.000507892 0.00318732 0.00996443 0.0170941 0.0245601 0.0334528 0.0390207 0.041712 0.0406761 0.0478144 0.060039 0.0736213 0.0895096 0.108398 0.135943 0.158266
260.5425 0.00025 0.00776814 -0.00743376 -0.0392271 -0.0292458 0.00387979 0.0222048 0.0213181 0.0254639 0.0371016 0.0613364 0.0600324 0.0407467 0.0250695 0.0011482 -0.0228858 -0.0439016 -0.0498074 -0.0499004 -0.0521782 -0.060527 -0.0575276 -0.0461133 -0.0430546 -0.0483885 -0.0456744 -0.0483573 -0.054501 -0.0542711 -0.0556257 -0.056103 -0.059752 -0.0520502 -0.047844 -0.0528383 -0.0638855 -0.0721484 -0.0756833 -0.0765781 -0.0689891 -0.0569986 -0.0440305 -0.0371815 -0.0335012 -0.0256121 -0.0166136 -0.00646128 -0.0043481 0.00192142 0.0076573 0.00680365 0.00868698 0.0142544 0.0234278 0.0306786 0.03146 0.0255184 0.0143265 -0.00181068 -0.0127212 -0.020528 -0.0257036 -0.0270671 -0.0328747 -0.0466 -0.0606422 -0.0804097 -0.0988412 -0.11421 -0.120041 -0.120973 -0.124947 -0.129345 -0.129884 -0.128366 -0.123993 -0.117161 -0.104807 -0.0912954 -0.0796958 -0.0674558 -0.0524029 -0.0321251 -0.0148584 -0.00504213 -0.000537389 0.00351315 0.0103771 0.0173633 0.0248316 0.0336737 0.0391892 0.0419276 0.0408647 0.0478578 0.0599306 0.0735053 0.0893263 0.108155 0.135734 0.158297
260.545 0.00025 0.00763829 -0.00742791 -0.0387546 -0.028745 0.0035621 0.0220493 0.0213093 0.0253415 0.0377536 0.0623926 0.0599295 0.0398653 0.0239792 0.000867529 -0.0228397 -0.0444464 -0.0499501 -0.0499631 -0.0527977 -0.0613179 -0.058278 -0.0462144 -0.042627 -0.0481307 -0.045437 -0.0481565 -0.0545556 -0.0543139 -0.0554711 -0.0559775 -0.059649 -0.0513812 -0.0469713 -0.0525664 -0.0640982 -0.0722011 -0.0751273 -0.0758825 -0.0685227 -0.056643 -0.0437775 -0.037181 -0.033678 -0.0256997 -0.0169265 -0.00697717 -0.00421099 0.00258599 0.00799257 0.00683097 0.00873266 0.0141678 0.0234262 0.0308961 0.0317619 0.0258854 0.0146984 -0.00129386 -0.0122759 -0.0203613 -0.0255219 -0.0269384 -0.0326687 -0.0461195 -0.0600588 -0.0798511 -0.0985529 -0.11441 -0.120203 -0.120935 -0.12513 -0.129739 -0.130549 -0.129573 -0.125405 -0.11828 -0.105593 -0.0918312 -0.0800379 -0.0678364 -0.052758 -0.0322682 -0.0149298 -0.0051995 -0.000551961 0.00384824 0.0107876 0.0176253 0.0251004 0.0338853 0.0393389 0.0421376 0.0410684 0.0479162 0.0598219 0.0733875 0.0891438 0.107908 0.135522 0.158326
260.5475 0.00025 0.00751145 -0.0073918 -0.0382374 -0.0282928 0.00314516 0.0218665 0.0214185 0.0253088 0.0384227 0.0633347 0.059721 0.0390085 0.0229456 0.000560879 -0.0227926 -0.0449733 -0.0501066 -0.0500424 -0.0533977 -0.0620524 -0.059057 -0.0463719 -0.0422142 -0.047842 -0.0451934 -0.0479719 -0.0546333 -0.0543847 -0.0553064 -0.0557829 -0.0595236 -0.0507463 -0.0460996 -0.0522803 -0.0643084 -0.0722255 -0.0745748 -0.0751786 -0.0680475 -0.0562943 -0.0435175 -0.0371987 -0.0338723 -0.0257622 -0.0172174 -0.00751094 -0.00409108 0.00322069 0.0082977 0.00687471 0.00881503 0.014113 0.0234268 0.0310789 0.0320334 0.0262461 0.0150702 -0.000766516 -0.0118041 -0.0201792 -0.0253498 -0.0268362 -0.0325065 -0.0456802 -0.0594803 -0.0792675 -0.0982333 -0.114585 -0.120359 -0.12091 -0.125322 -0.1301 -0.131156 -0.13075 -0.126833 -0.119415 -0.106386 -0.0923876 -0.0803971 -0.0682092 -0.0530953 -0.0324078 -0.0150163 -0.00535815 -0.000550044 0.00419077 0.0111946 0.0178809 0.025367 0.0340876 0.0394706 0.0423414 0.0412857 0.0479892 0.0597136 0.0732682 0.0889622 0.107657 0.135307 0.158353
260.55 0.00025 0.00738716 -0.0073279 -0.0376823 -0.0278911 0.00263577 0.021661 0.0216454 0.0253699 0.0391086 0.0641486 0.0594008 0.0381827 0.0219939 0.000230387 -0.0227561 -0.0454779 -0.0502827 -0.0501507 -0.0539762 -0.0627213 -0.0598572 -0.0465864 -0.0418269 -0.0475243 -0.0449424 -0.0478028 -0.0547301 -0.0544817 -0.0551325 -0.0555233 -0.0593761 -0.0501451 -0.0452332 -0.0519791 -0.0645094 -0.072218 -0.0740282 -0.0744725 -0.0675628 -0.0559544 -0.0432513 -0.0372265 -0.034087 -0.0258113 -0.0174775 -0.00804777 -0.00399333 0.00381413 0.00857242 0.00693797 0.00893586 0.0140927 0.0234288 0.031224 0.0322744 0.0266021 0.0154431 -0.000230966 -0.0113062 -0.0199796 -0.0251882 -0.0267597 -0.0323849 -0.0452828 -0.0589112 -0.0786614 -0.0978822 -0.114734 -0.120507 -0.120895 -0.125524 -0.130439 -0.131708 -0.131887 -0.128266 -0.120568 -0.107187 -0.0929651 -0.0807762 -0.0685749 -0.0534137 -0.0325458 -0.0151184 -0.00551541 -0.000530289 0.00453892 0.0115969 0.018131 0.0256314 0.0342807 0.0395853 0.0425387 0.0415153 0.0480766 0.059606 0.0731476 0.0887818 0.107402 0.135087 0.158379
260.5525 0.00025 0.00726737 -0.00724023 -0.0371007 -0.0275387 0.00204362 0.0214366 0.0219859 0.0255284 0.0398091 0.0648231 0.0589695 0.0373931 0.0211423 -0.000118879 -0.022743 -0.0459547 -0.0504824 -0.0503023 -0.0545315 -0.0633158 -0.0606706 -0.0468589 -0.0414751 -0.04718 -0.044683 -0.047648 -0.0548418 -0.0546027 -0.0549497 -0.055205 -0.0592071 -0.0495764 -0.0443767 -0.0516622 -0.064694 -0.0721752 -0.0734889 -0.0737711 -0.0670679 -0.0556244 -0.042982 -0.0372563 -0.0343205 -0.0258597 -0.0177034 -0.00857092 -0.0039204 0.00435481 0.00881635 0.00702331 0.0090965 0.0141089 0.0234319 0.0313293 0.0324846 0.0269546 0.0158183 0.000311422 -0.0107829 -0.0197603 -0.0250384 -0.0267086 -0.0323005 -0.0449272 -0.0583559 -0.0780364 -0.0974993 -0.114855 -0.120646 -0.120887 -0.125738 -0.130764 -0.132212 -0.132973 -0.129696 -0.121741 -0.108 -0.0935643 -0.0811775 -0.0689344 -0.0537124 -0.0326835 -0.0152368 -0.00566877 -0.000491518 0.0048909 0.0119933 0.0183767 0.0258938 0.0344648 0.039684 0.0427292 0.0417557 0.048178 0.0594996 0.073026 0.0886026 0.107142 0.134864 0.158403
260.555 0.00025 0.00715185 -0.00712912 -0.0365092 -0.0272306 0.00138194 0.0211945 0.0224336 0.0257883 0.0405197 0.065347 0.058433 0.0366449 0.0204032 -0.000479857 -0.0227651 -0.046399 -0.0507075 -0.0505113 -0.0550638 -0.0638282 -0.0614882 -0.0471899 -0.0411679 -0.0468128 -0.0444152 -0.0475063 -0.0549628 -0.0547439 -0.0547591 -0.0548359 -0.0590168 -0.0490381 -0.0435347 -0.0513295 -0.0648547 -0.0720946 -0.0729576 -0.0730813 -0.0665628 -0.0553043 -0.0427153 -0.0372809 -0.0345668 -0.025919 -0.0178966 -0.00906404 -0.00387213 0.00483209 0.00902879 0.00713257 0.00929808 0.0141635 0.0234356 0.0313936 0.0326641 0.027304 0.0161966 0.000859955 -0.010235 -0.0195196 -0.024901 -0.0266827 -0.0322498 -0.0446122 -0.0578189 -0.0773967 -0.0970844 -0.114946 -0.120778 -0.120886 -0.12596 -0.131084 -0.132675 -0.134 -0.131112 -0.122931 -0.108826 -0.0941855 -0.0816033 -0.0692892 -0.0539908 -0.0328224 -0.0153716 -0.00581595 -0.000432845 0.00524502 0.0123829 0.018619 0.0261542 0.03464 0.0397682 0.0429127 0.0420053 0.0482926 0.0593947 0.0729039 0.0884249 0.106879 0.134637 0.158425
260.5575 0.00025 0.00704155 -0.0069992 -0.0359217 -0.0269632 0.000666444 0.0209363 0.0229808 0.0261543 0.0412328 0.0657105 0.0578038 0.0359436 0.0197818 -0.000843564 -0.0228342 -0.0468064 -0.0509567 -0.0507907 -0.0555751 -0.0642526 -0.0623005 -0.0475793 -0.0409131 -0.0464268 -0.0441394 -0.0473762 -0.055087 -0.0549006 -0.0545622 -0.0544259 -0.0588047 -0.0485276 -0.042712 -0.0509818 -0.0649831 -0.071974 -0.072435 -0.07241 -0.0660473 -0.0549926 -0.0424586 -0.0372953 -0.0348165 -0.0259982 -0.0180633 -0.00951293 -0.00384529 0.00523696 0.00920849 0.00726677 0.00954154 0.0142578 0.0234398 0.0314168 0.0328127 0.0276495 0.0165788 0.00141444 -0.00966366 -0.0192557 -0.0247763 -0.0266816 -0.0322296 -0.0443361 -0.0573044 -0.0767472 -0.0966378 -0.115006 -0.1209 -0.120889 -0.126189 -0.131404 -0.133107 -0.134966 -0.132501 -0.124137 -0.109667 -0.094829 -0.082055 -0.0696409 -0.0542486 -0.0329636 -0.015523 -0.00595507 -0.000353575 0.00559969 0.0127648 0.018859 0.0264124 0.0348066 0.0398393 0.0430891 0.0422625 0.0484197 0.0592917 0.0727815 0.0882489 0.106611 0.134406 0.158446
260.56 0.00025 0.00693561 -0.00685744 -0.0353474 -0.0267343 -8.56405e-05 0.0206622 0.0236188 0.026631 0.041938 0.0659066 0.057099 0.0352952 0.0192756 -0.00120025 -0.0229616 -0.0471739 -0.0512259 -0.0511513 -0.0560692 -0.064585 -0.0630971 -0.0480265 -0.0407176 -0.0460274 -0.0438564 -0.0472558 -0.0552082 -0.0550671 -0.0543611 -0.0539861 -0.0585696 -0.0480419 -0.0419135 -0.0506201 -0.0650704 -0.071811 -0.0719214 -0.0717639 -0.0655225 -0.0546861 -0.0422193 -0.0372978 -0.0350585 -0.026102 -0.0182129 -0.00990757 -0.00383397 0.00556315 0.00935351 0.00742578 0.00982751 0.0143929 0.0234442 0.0313994 0.0329303 0.0279895 0.0169657 0.00197536 -0.00907004 -0.0189675 -0.0246641 -0.0267057 -0.0322371 -0.0440961 -0.0568162 -0.0760935 -0.0961603 -0.115033 -0.121015 -0.120896 -0.12642 -0.13173 -0.133518 -0.135867 -0.133854 -0.125354 -0.110525 -0.0954951 -0.0825341 -0.0699915 -0.0544862 -0.033108 -0.0156908 -0.00608452 -0.00025333 0.00595349 0.0131382 0.0190977 0.0266681 0.0349646 0.0398991 0.0432584 0.0425258 0.0485586 0.0591908 0.0726593 0.0880748 0.106339 0.134171 0.158465
260.5625 0.00025 0.00683421 -0.00670684 -0.034799 -0.0265426 -0.00085723 0.0203742 0.024337 0.0272217 0.0426249 0.06593 0.0563398 0.0347041 0.0188768 -0.00154065 -0.0231561 -0.0475017 -0.0515076 -0.0516018 -0.0565512 -0.0648235 -0.0638678 -0.0485296 -0.0405869 -0.0456209 -0.043568 -0.0471428 -0.0553198 -0.0552362 -0.0541589 -0.0535283 -0.0583102 -0.0475771 -0.0411444 -0.0502462 -0.0651082 -0.0716033 -0.0714173 -0.071149 -0.0649899 -0.0543805 -0.0420049 -0.0372896 -0.0352809 -0.0262304 -0.0183562 -0.0102434 -0.00383086 0.00580793 0.00946205 0.00760832 0.010156 0.0145694 0.023449 0.0313432 0.033017 0.0283221 0.0173572 0.00254356 -0.00845545 -0.0186539 -0.0245636 -0.0267546 -0.03227 -0.043889 -0.0563571 -0.0754418 -0.0956534 -0.115024 -0.121122 -0.120908 -0.12665 -0.132061 -0.133918 -0.136706 -0.135159 -0.126579 -0.111402 -0.0961837 -0.0830413 -0.0703433 -0.0547044 -0.0332563 -0.0158745 -0.00620307 -0.000132043 0.00630511 0.0135024 0.0193364 0.0269209 0.0351144 0.0399492 0.0434207 0.0427934 0.0487082 0.0590921 0.0725375 0.0879027 0.106064 0.133933 0.158482
260.565 0.00025 0.00673642 -0.00654893 -0.034286 -0.0263875 -0.00163265 0.0200753 0.0251228 0.0279287 0.0432825 0.0657773 0.0555479 0.034175 0.0185734 -0.00185781 -0.023422 -0.0477921 -0.0517928 -0.0521468 -0.0570277 -0.064969 -0.0646023 -0.049085 -0.0405254 -0.0452148 -0.0432757 -0.0470344 -0.0554159 -0.0554002 -0.0539595 -0.053065 -0.0580242 -0.047129 -0.0404099 -0.0498623 -0.0650881 -0.0713494 -0.0709237 -0.0705701 -0.0644514 -0.0540715 -0.0418209 -0.0372748 -0.0354729 -0.0263787 -0.0185033 -0.0105209 -0.00382829 0.00597229 0.0095323 0.00781174 0.0105264 0.0147877 0.0234547 0.0312504 0.0330726 0.0286449 0.0177535 0.00312017 -0.00782141 -0.0183143 -0.0244733 -0.0268283 -0.0323267 -0.0437118 -0.0559287 -0.0747985 -0.0951195 -0.114977 -0.121221 -0.120925 -0.126875 -0.132398 -0.134315 -0.137486 -0.136408 -0.127804 -0.112297 -0.0968952 -0.0835768 -0.0706985 -0.0549045 -0.0334089 -0.0160732 -0.00630982 1.00677e-05 0.00665341 0.013857 0.0195762 0.0271705 0.0352561 0.0399916 0.0435765 0.0430638 0.0488678 0.0589958 0.0724164 0.0877329 0.105785 0.13369 0.158499
260.5675 0.00025 0.00664246 -0.00638549 -0.0338162 -0.026272 -0.00239749 0.0197711 0.0259649 0.0287489 0.0438994 0.0654512 0.0547441 0.033713 0.0183512 -0.00214801 -0.023759 -0.0480483 -0.0520727 -0.0527872 -0.0575062 -0.0650256 -0.0652901 -0.0496891 -0.0405365 -0.0448159 -0.0429826 -0.0469276 -0.0554904 -0.0555508 -0.0537665 -0.0526089 -0.0577099 -0.0466923 -0.0397155 -0.049471 -0.0650019 -0.0710479 -0.0704418 -0.0700312 -0.0639098 -0.0537545 -0.0416704 -0.0372601 -0.0356268 -0.0265387 -0.0186623 -0.0107456 -0.00381948 0.00606094 0.00956325 0.00803224 0.0109374 0.0150478 0.0234617 0.0311239 0.0330975 0.0289552 0.0181543 0.00370656 -0.00716957 -0.0179487 -0.024391 -0.026926 -0.0324061 -0.0435617 -0.0555318 -0.0741697 -0.0945618 -0.114888 -0.121311 -0.120952 -0.127094 -0.132737 -0.134717 -0.138212 -0.137594 -0.129022 -0.11321 -0.0976296 -0.0841404 -0.0710596 -0.0550884 -0.033566 -0.0162861 -0.00640428 0.000172538 0.0069973 0.0142015 0.0198184 0.0274165 0.0353897 0.0400281 0.043726 0.0433354 0.049036 0.058902 0.0722965 0.0875656 0.105502 0.133445 0.158513