260.5025 0.00025 589.288 1600.74 2546.19 2124.9 1968.32 1697.42 1498.67 1334.03 1146.68 997.316 958.373 893.131 808.823 774.151 706.587 692.392 656.364 635.633 600.003 567.027 520.023 485.985 462.171 443.991 415.696 389.433 360.888 339.177 310.961 308.055 296.967 273.854 267.978 274.143 279.587 278.833 268.344 266.503 260.318 255.293 251.208 239.431 223.199 205.655 192.856 187.586 183.852 181.936 183.594 181.991 180.927 173.72 165.802 165.239 167.949 173.427 173.917 171.851 170.941 167.202 163.253 152.446 143.661 134.809 131.007 130.341 128.539 130.45 136.322 133.811 127.35 121.778 117.508 114.785 113.295 112.427 108.438 104.666 101.509 97.3592 95.5701 91.1304 87.3714 87.2532 84.7763 82.6109 80.1221 80.0213 78.7496 77.9161 75.6467 73.5194 71.5106 68.724 66.7153 65.2368 61.9974 61.0667 59.4643 53.4771
260.505 0.00025 589.112 1600.32 2544.02 2121.19 1961.09 1696.22 1500.62 1335.28 1149.23 992.858 956.094 895.376 809.359 775.149 706.949 692.213 656.073 634.863 601.494 567.256 520.028 486.541 460.982 442.261 416.073 389.01 360.344 338.186 309.592 307.402 297.269 273.925 267.703 273.91 279.999 278.516 268.22 265.559 259.749 255.329 251.221 239.879 223.611 205.727 193.274 187.665 183.817 181.38 183.314 181.884 181.213 174.164 166.2 165.158 167.995 173.522 173.748 171.601 170.464 166.632 163.275 152.632 143.815 134.595 130.568 129.921 128.476 130.321 136.591 134.026 127.394 121.435 117.223 114.688 113.205 112.387 108.396 104.94 101.831 97.4814 95.5113 91.0265 87.4263 87.2872 84.6413 82.379 80.1104 79.9029 78.6065 77.8051 75.6683 73.5348 71.4221 68.5355 66.5937 65.1504 61.9325 60.9161 59.3346 53.4482
260.5075 0.00025 588.849 1600.1 2541.71 2117.7 1953.53 1694.36 1502.31 1336.23 1152.47 989.048 953.101 897.072 810.546 776.267 707.846 691.799 655.915 634.014 602.915 567.373 520.174 487.115 459.867 440.401 416.183 388.705 359.959 337.189 308.268 306.582 297.361 274.152 267.558 273.797 280.25 278.014 268.278 264.571 259.193 255.363 251.185 240.37 224.01 205.77 193.7 187.809 183.825 180.813 183.017 181.803 181.51 174.58 166.58 165.091 168.04 173.616 173.573 171.381 170.017 165.987 163.22 152.82 144 134.416 130.188 129.466 128.371 130.202 136.81 134.217 127.429 121.15 116.97 114.629 113.109 112.307 108.347 105.212 102.142 97.6228 95.4799 90.9285 87.4872 87.3232 84.5104 82.1511 80.0953 79.7671 78.4885 77.6933 75.6761 73.5334 71.3332 68.3608 66.4731 65.0568 61.8686 60.7685 59.2045 53.4191
260.51 0.00025 588.419 1600.19 2539.34 2114.83 1945.48 1691.99 1503.62 1336.98 1156.12 985.868 949.614 898.024 812.433 777.409 709.356 691.131 655.845 633.247 604.157 567.395 520.452 487.695 458.851 438.494 415.955 388.537 359.731 336.211 306.995 305.629 297.191 274.502 267.555 273.827 280.304 277.35 268.485 263.581 258.64 255.381 251.103 240.905 224.406 205.783 194.13 188.012 183.868 180.254 182.702 181.746 181.817 174.965 166.941 165.048 168.072 173.707 173.399 171.171 169.615 165.291 163.063 153.006 144.218 134.276 129.867 128.997 128.214 130.1 136.972 134.381 127.446 120.925 116.755 114.613 113.006 112.188 108.291 105.484 102.44 97.7828 95.4733 90.8441 87.5494 87.3599 84.3841 81.9276 80.0765 79.613 78.3974 77.5817 75.6674 73.5157 71.2441 68.2009 66.3527 64.9564 61.805 60.6241 59.0744 53.3894
260.5125 0.00025 587.878 1600.35 2536.99 2112.87 1936.89 1689.19 1504.41 1337.59 1159.86 983.231 945.836 898.111 815.021 778.5 711.482 690.251 655.82 632.732 605.119 567.348 520.835 488.255 457.963 436.631 415.329 388.497 359.659 335.283 305.781 304.575 296.722 274.929 267.707 274.01 280.144 276.563 268.789 262.639 258.08 255.369 250.977 241.484 224.813 205.765 194.56 188.266 183.936 179.72 182.369 181.713 182.127 175.314 167.28 165.037 168.083 173.794 173.24 170.954 169.263 164.571 162.784 153.18 144.465 134.18 129.601 128.531 127.999 130.018 137.074 134.517 127.438 120.756 116.579 114.642 112.897 112.031 108.229 105.755 102.722 97.9613 95.4878 90.7807 87.61 87.3949 84.2628 81.709 80.054 79.4405 78.3336 77.4712 75.6395 73.4824 71.1548 68.0569 66.2319 64.8498 61.7416 60.4829 58.9446 53.3585
260.515 0.00025 587.26 1600.52 2534.73 2111.89 1927.84 1686.04 1504.55 1338.08 1163.45 981.05 941.874 897.309 818.255 779.494 714.147 689.242 655.791 632.623 605.713 567.251 521.292 488.765 457.234 434.896 414.276 388.553 359.735 334.433 304.625 303.449 295.939 275.382 268.028 274.339 279.767 275.695 269.126 261.799 257.51 255.313 250.808 242.103 225.244 205.721 194.989 188.561 184.023 179.228 182.018 181.705 182.431 175.627 167.598 165.068 168.064 173.871 173.11 170.709 168.963 163.854 162.373 153.331 144.738 134.135 129.384 128.088 127.728 129.948 137.118 134.621 127.398 120.64 116.446 114.72 112.779 111.84 108.161 106.024 102.987 98.1584 95.5194 90.7444 87.6676 87.4252 84.1469 81.4954 80.0273 79.2511 78.2967 77.3635 75.5901 73.4341 71.0653 67.9299 66.1099 64.7373 61.678 60.3451 58.8149 53.326
260.5175 0.00025 586.504 1600.8 2532.81 2111.94 1918.42 1682.53 1503.96 1338.4 1166.7 979.318 937.774 895.688 822.039 780.36 717.235 688.199 655.721 633.016 605.892 567.11 521.792 489.181 456.697 433.361 412.794 388.654 359.96 333.683 303.533 302.277 294.844 275.815 268.517 274.789 279.192 274.789 269.436 261.106 256.924 255.197 250.597 242.759 225.711 205.656 195.415 188.884 184.122 178.791 181.65 181.723 182.717 175.902 167.899 165.144 168.014 173.93 173.023 170.425 168.711 163.16 161.835 153.441 145.026 134.152 129.209 127.678 127.409 129.881 137.108 134.693 127.322 120.571 116.359 114.847 112.657 111.619 108.087 106.288 103.236 98.3741 95.5642 90.7391 87.7232 87.4475 84.0362 81.2868 79.9958 79.0472 78.285 77.2603 75.5175 73.3718 70.9758 67.8205 65.9864 64.6196 61.6137 60.2108 58.6857 53.2911
260.52 0.00025 585.635 1601.16 2531.34 2112.94 1908.8 1678.61 1502.63 1338.41 1169.54 978.087 933.533 893.43 826.264 781.072 720.595 687.195 655.626 633.921 605.662 566.9 522.313 489.461 456.384 432.07 410.909 388.737 360.34 333.041 302.511 301.08 293.452 276.201 269.154 275.325 278.457 273.879 269.669 260.594 256.323 255.007 250.339 243.45 226.222 205.586 195.834 189.222 184.227 178.418 181.271 181.767 182.974 176.139 168.186 165.269 167.934 173.961 172.986 170.095 168.498 162.505 161.186 153.492 145.317 134.239 129.07 127.312 127.058 129.803 137.047 134.732 127.21 120.54 116.318 115.02 112.532 111.371 108.008 106.543 103.47 98.6078 95.6188 90.7664 87.7801 87.458 83.9306 81.0831 79.9585 78.8328 78.2958 77.1632 75.4204 73.296 70.8861 67.7292 65.861 64.4974 61.5485 60.0803 58.557 53.2534
260.5225 0.00025 584.67 1601.6 2530.45 2114.63 1899.08 1674.27 1500.57 1337.99 1171.97 977.425 929.168 890.741 830.809 781.615 724.076 686.266 655.552 635.291 605.069 566.567 522.846 489.578 456.317 431.036 408.675 388.739 360.871 332.515 301.562 299.875 291.781 276.534 269.907 275.9 277.614 272.992 269.792 260.275 255.719 254.73 250.033 244.17 226.781 205.53 196.242 189.561 184.337 178.113 180.887 181.836 183.191 176.34 168.463 165.438 167.831 173.955 173.005 169.721 168.312 161.895 160.45 153.465 145.595 134.405 128.964 126.992 126.696 129.703 136.937 134.738 127.068 120.537 116.325 115.236 112.411 111.102 107.924 106.783 103.691 98.8586 95.6805 90.8255 87.8435 87.4532 83.829 80.8842 79.9141 78.6128 78.3257 77.0738 75.2985 73.2074 70.7966 67.6563 65.7334 64.3711 61.4824 59.9537 58.4286 53.2128
260.525 0.00025 583.641 1602 2530.28 2116.67 1889.38 1669.48 1497.83 1337 1174.01 977.357 924.762 887.843 835.521 781.993 727.536 685.436 655.554 637.046 604.188 566.05 523.376 489.514 456.501 430.251 406.167 388.598 361.548 332.107 300.698 298.672 289.853 276.822 270.726 276.465 276.721 272.149 269.791 260.141 255.132 254.359 249.67 244.909 227.386 205.513 196.632 189.889 184.448 177.878 180.508 181.928 183.355 176.506 168.737 165.649 167.714 173.905 173.073 169.312 168.136 161.333 159.662 153.347 145.839 134.651 128.891 126.718 126.342 129.572 136.781 134.705 126.903 120.551 116.383 115.487 112.302 110.817 107.836 107.004 103.904 99.1245 95.7484 90.9133 87.9195 87.4302 83.7303 80.69 79.8608 78.3932 78.3705 76.9934 75.1517 73.1065 70.7074 67.6019 65.6034 64.2416 61.4152 59.8312 58.3002 53.1686
260.5275 0.00025 582.525 1602.29 2530.98 2118.8 1879.9 1664.31 1494.43 1335.33 1175.69 977.837 920.483 884.984 840.196 782.224 730.831 684.76 655.656 639.094 603.107 565.307 523.879 489.264 456.924 429.679 403.476 388.265 362.354 331.821 299.933 297.473 287.701 277.081 271.557 276.973 275.837 271.365 269.67 260.166 254.589 253.885 249.25 245.651 228.037 205.562 197 190.196 184.561 177.711 180.146 182.041 183.457 176.641 169.01 165.893 167.596 173.809 173.176 168.885 167.956 160.813 158.853 153.131 146.029 134.974 128.854 126.485 126.015 129.406 136.581 134.625 126.729 120.568 116.491 115.765 112.212 110.52 107.745 107.2 104.112 99.4026 95.8225 91.0246 88.0144 87.3873 83.6322 80.5005 79.7966 78.1801 78.4258 76.9225 74.9813 72.9935 70.619 67.5658 65.4711 64.1096 61.347 59.7127 58.1714 53.1209
260.53 0.00025 581.33 1602.53 2532.39 2121.04 1870.84 1658.84 1490.45 1332.93 1176.98 978.765 916.522 882.425 844.579 782.336 733.822 684.311 655.846 641.334 601.906 564.319 524.308 488.84 457.554 429.271 400.692 387.7 363.256 331.66 299.288 296.274 285.365 277.316 272.352 277.385 275.01 270.656 269.445 260.308 254.124 253.307 248.776 246.371 228.728 205.704 197.343 190.472 184.674 177.607 179.811 182.169 183.489 176.747 169.287 166.162 167.486 173.67 173.297 168.456 167.76 160.328 158.056 152.817 146.145 135.365 128.856 126.29 125.73 129.207 136.341 134.486 126.558 120.58 116.644 116.06 112.151 110.22 107.651 107.366 104.317 99.6895 95.9041 91.1531 88.1341 87.3251 83.532 80.3157 79.7192 77.9803 78.487 76.8614 74.789 72.8687 70.5319 67.5472 65.3365 63.9759 61.2778 59.5983 58.042 53.0695
260.5325 0.00025 580.061 1602.64 2534.5 2123.38 1862.54 1653.09 1486.02 1329.85 1177.75 980.031 913.062 880.427 848.399 782.38 736.4 684.164 656.107 643.64 600.663 563.107 524.608 488.261 458.34 428.976 397.906 386.887 364.209 331.629 298.784 295.066 282.901 277.519 273.074 277.67 274.276 270.035 269.143 260.521 253.766 252.63 248.261 247.031 229.448 205.968 197.661 190.709 184.789 177.563 179.515 182.305 183.446 176.827 169.57 166.448 167.392 173.496 173.413 168.041 167.539 159.865 157.296 152.415 146.171 135.805 128.907 126.128 125.497 128.983 136.065 134.278 126.401 120.584 116.839 116.365 112.124 109.922 107.555 107.498 104.523 99.9809 95.9962 91.2918 88.2828 87.2458 83.4266 80.1357 79.6258 77.7999 78.5496 76.8096 74.5772 72.7321 70.447 67.5454 65.2 63.8411 61.2078 59.4879 57.9115 53.0142
260.535 0.00025 578.737 1602.49 2537.1 2125.81 1855.32 1647.03 1481.29 1326.19 1177.86 981.528 910.294 879.183 851.458 782.397 738.515 684.36 656.417 645.863 599.438 561.714 524.724 487.561 459.207 428.751 395.195 385.83 365.153 331.729 298.443 293.832 280.381 277.661 273.7 277.806 273.657 269.515 268.793 260.757 253.535 251.87 247.726 247.591 230.181 206.374 197.962 190.899 184.904 177.577 179.266 182.443 183.325 176.883 169.86 166.745 167.321 173.3 173.503 167.652 167.288 159.412 156.591 151.935 146.1 136.268 129.011 125.996 125.318 128.744 135.755 133.992 126.259 120.583 117.063 116.674 112.136 109.637 107.454 107.596 104.731 100.273 96.1018 91.4337 88.4628 87.1541 83.3125 79.9607 79.5145 77.6449 78.6094 76.7662 74.3492 72.5837 70.3652 67.5589 65.0619 63.706 61.1371 59.3816 57.7797 52.9552
260.5375 0.00025 577.353 1602.06 2540.16 2128.33 1849.37 1640.59 1476.4 1322.16 1177.23 983.181 908.383 878.757 853.666 782.407 740.167 684.878 656.776 647.838 598.266 560.204 524.608 486.788 460.068 428.565 392.62 384.556 366.014 331.965 298.283 292.558 277.881 277.704 274.22 277.779 273.162 269.106 268.425 260.976 253.436 251.058 247.193 248.017 230.899 206.937 198.259 191.035 185.018 177.646 179.071 182.575 183.127 176.915 170.16 167.047 167.273 173.096 173.549 167.294 167.007 158.958 155.952 151.394 145.931 136.725 129.174 125.894 125.194 128.504 135.418 133.629 126.129 120.583 117.307 116.98 112.188 109.373 107.349 107.659 104.939 100.561 96.2242 91.5726 88.6741 87.0567 83.1863 79.791 79.3834 77.5197 78.6627 76.7295 74.1083 72.4236 70.2872 67.5861 64.923 63.5711 61.0661 59.2792 57.6459 52.8926
260.54 0.00025 575.922 1601.23 2543.67 2130.88 1844.9 1633.7 1471.53 1318.01 1175.86 984.933 907.473 879.061 855.077 782.423 741.383 685.641 657.181 649.43 597.166 558.648 524.221 485.993 460.841 428.392 390.227 383.104 366.729 332.336 298.32 291.227 275.482 277.612 274.63 277.592 272.786 268.811 268.065 261.146 253.458 250.236 246.67 248.296 231.563 207.661 198.572 191.109 185.133 177.771 178.937 182.69 182.854 176.923 170.473 167.35 167.249 172.899 173.538 166.965 166.7 158.49 155.383 150.81 145.671 137.148 129.394 125.822 125.119 128.277 135.055 133.194 125.998 120.595 117.557 117.28 112.28 109.14 107.239 107.689 105.145 100.843 96.3657 91.7039 88.9135 86.9619 83.0449 79.6267 79.2317 77.4276 78.7066 76.6978 73.8585 72.2521 70.214 67.6249 64.7838 63.437 60.995 59.1805 57.5101 52.8263
260.5425 0.00025 574.466 1599.93 2547.33 2133.4 1842.02 1626.32 1466.81 1313.96 1173.83 986.752 907.637 879.827 855.873 782.413 742.229 686.548 657.637 650.535 596.124 557.1 523.551 485.224 461.448 428.213 388.049 381.51 367.236 332.832 298.566 289.827 273.252 277.354 274.928 277.257 272.521 268.627 267.74 261.248 253.58 249.452 246.159 248.431 232.134 208.535 198.926 191.118 185.247 177.953 178.866 182.781 182.512 176.904 170.802 167.65 167.243 172.72 173.466 166.662 166.368 158.002 154.88 150.199 145.331 137.513 129.664 125.783 125.089 128.074 134.671 132.699 125.856 120.626 117.805 117.569 112.408 108.947 107.124 107.688 105.347 101.117 96.5276 91.8253 89.1756 86.8787 82.8862 79.4676 79.0593 77.3697 78.7394 76.6686 73.6035 72.0697 70.1462 67.6732 64.6455 63.3041 60.9239 59.0856 57.3719 52.7566
260.545 0.00025 573.004 1598.12 2550.96 2135.75 1840.76 1618.41 1462.39 1310.13 1171.25 988.609 908.881 880.702 856.245 782.324 742.774 687.485 658.159 651.111 595.127 555.589 522.625 484.504 461.834 428.014 386.108 379.797 367.493 333.437 299.024 288.362 271.241 276.918 275.12 276.793 272.352 268.542 267.476 261.275 253.771 248.749 245.652 248.444 232.577 209.531 199.345 191.063 185.358 178.195 178.863 182.837 182.109 176.856 171.149 167.944 167.251 172.566 173.334 166.38 166.014 157.491 154.432 149.579 144.925 137.801 129.972 125.779 125.097 127.905 134.269 132.159 125.693 120.677 118.044 117.843 112.568 108.8 107.005 107.659 105.539 101.382 96.709 91.9371 89.4523 86.8168 82.7092 79.3131 78.8674 77.3452 78.7602 76.6394 73.347 71.8773 70.0846 67.7285 64.5091 63.1725 60.8531 58.9939 57.231 52.6836
260.5475 0.00025 571.559 1595.86 2554.45 2137.73 1841.13 1610.08 1458.35 1306.55 1168.29 990.458 911.127 881.346 856.359 782.114 743.052 688.347 658.753 651.157 594.177 554.12 521.505 483.854 461.965 427.779 384.408 377.987 367.479 334.123 299.688 286.844 269.478 276.308 275.206 276.225 272.268 268.537 267.296 261.228 254.003 248.157 245.147 248.355 232.876 210.601 199.85 190.955 185.46 178.498 178.928 182.848 181.655 176.776 171.514 168.232 167.268 172.441 173.147 166.112 165.64 156.957 154.025 148.966 144.467 138.005 130.3 125.813 125.143 127.772 133.856 131.589 125.506 120.742 118.276 118.096 112.755 108.706 106.884 107.605 105.717 101.639 96.9071 92.0418 89.7341 86.7851 82.5146 79.1623 78.6588 77.3507 78.7691 76.6078 73.0926 71.676 70.0294 67.7884 64.3759 63.0425 60.7829 58.9053 57.0874 52.6076
260.55 0.00025 570.142 1593.26 2557.66 2139.12 1843.02 1601.45 1454.8 1303.28 1165.14 992.268 914.192 881.551 856.307 781.804 743.054 689.062 659.423 650.721 593.277 552.678 520.27 483.28 461.83 427.492 382.935 376.101 367.187 334.86 300.538 285.304 267.968 275.551 275.19 275.583 272.253 268.59 267.216 261.12 254.25 247.694 244.65 248.177 233.042 211.687 200.451 190.813 185.545 178.866 179.065 182.808 181.16 176.663 171.899 168.514 167.29 172.344 172.916 165.856 165.246 156.404 153.642 148.373 143.969 138.125 130.63 125.88 125.224 127.677 133.439 130.998 125.303 120.808 118.5 118.325 112.961 108.666 106.765 107.532 105.876 101.888 97.1177 92.1439 90.0105 86.791 82.3052 79.0137 78.4375 77.381 78.7672 76.5713 72.8432 71.4674 69.9807 67.8504 64.2474 62.9141 60.7135 58.8196 56.9407 52.5286
260.5525 0.00025 568.814 1590.3 2560.48 2139.68 1846.34 1592.74 1451.76 1300.33 1161.96 993.98 917.796 881.253 856.099 781.481 742.741 689.609 660.15 649.869 592.448 551.255 518.989 482.788 461.433 427.133 381.658 374.17 366.624 335.608 301.545 283.786 266.694 274.689 275.071 274.897 272.299 268.682 267.247 260.966 254.489 247.367 244.168 247.914 233.1 212.733 201.14 190.67 185.603 179.3 179.273 182.707 180.635 176.517 172.3 168.79 167.314 172.267 172.651 165.608 164.833 155.836 153.265 147.809 143.446 138.165 130.945 125.975 125.343 127.616 133.028 130.392 125.097 120.86 118.719 118.529 113.18 108.681 106.653 107.442 106.012 102.131 97.3353 92.2489 90.2714 86.8396 82.0853 78.865 78.2088 77.4287 78.7559 76.5277 72.6016 71.2532 69.9383 67.9122 64.1246 62.7874 60.6448 58.7364 56.7911 52.4468
260.555 0.00025 567.555 1587.21 2562.8 2139.37 1850.91 1584.18 1449.22 1297.79 1158.94 995.548 921.572 880.573 855.707 781.25 742.058 690.003 660.9 648.681 591.717 549.859 517.716 482.379 460.796 426.683 380.536 372.227 365.812 336.324 302.67 282.339 265.628 273.769 274.844 274.192 272.392 268.793 267.387 260.79 254.706 247.174 243.714 247.565 233.084 213.697 201.892 190.559 185.626 179.799 179.55 182.542 180.093 176.339 172.713 169.064 167.338 172.202 172.363 165.367 164.403 155.26 152.875 147.281 142.912 138.132 131.234 126.088 125.498 127.585 132.633 129.774 124.904 120.885 118.935 118.708 113.404 108.747 106.552 107.343 106.122 102.37 97.5538 92.3622 90.5082 86.9332 81.8618 78.7136 77.9795 77.4853 78.737 76.4752 72.3698 71.0358 69.9018 67.9716 64.009 62.6624 60.5771 58.6557 56.6386 52.3626
260.5575 0.00025 566.37 1584.05 2564.44 2138.18 1856.42 1576.09 1447.05 1295.72 1156.19 996.984 925.134 879.668 855.069 781.188 740.97 690.244 661.622 647.232 591.098 548.492 516.488 482.058 459.95 426.115 379.531 370.298 364.78 336.968 303.872 281.014 264.732 272.844 274.503 273.488 272.523 268.909 267.622 260.62 254.893 247.11 243.291 247.139 233.019 214.561 202.666 190.511 185.607 180.361 179.895 182.313 179.546 176.132 173.131 169.338 167.359 172.139 172.064 165.132 163.963 154.682 152.455 146.79 142.383 138.034 131.491 126.207 125.688 127.582 132.259 129.148 124.737 120.873 119.143 118.863 113.628 108.86 106.469 107.24 106.203 102.605 97.7678 92.4885 90.7144 87.0706 81.6428 78.557 77.7567 77.542 78.7116 76.4124 72.15 70.8173 69.8707 68.0269 63.9015 62.5392 60.5104 58.5772 56.4832 52.2764
260.56 0.00025 565.302 1580.82 2565.14 2136.18 1862.52 1568.79 1445.05 1294.19 1153.74 998.316 928.16 878.68 854.164 781.304 739.498 690.331 662.302 645.6 590.605 547.169 515.341 481.838 458.929 425.403 378.615 368.397 363.558 337.501 305.109 279.854 263.97 271.962 274.037 272.803 272.681 269.021 267.923 260.488 255.049 247.164 242.901 246.652 232.911 215.333 203.417 190.55 185.55 180.976 180.301 182.021 179.006 175.9 173.547 169.614 167.379 172.063 171.762 164.902 163.519 154.111 151.99 146.335 141.875 137.875 131.716 126.323 125.906 127.604 131.909 128.522 124.602 120.826 119.34 118.995 113.847 109.012 106.408 107.138 106.253 102.838 97.9723 92.6307 90.8867 87.2474 81.438 78.3928 77.5473 77.5898 78.6801 76.3387 71.9435 70.6002 69.8442 68.0765 63.8029 62.4182 60.4445 58.5007 56.3248 52.1882
260.5625 0.00025 564.376 1577.52 2564.81 2133.46 1868.76 1562.62 1443.01 1293.19 1151.58 999.634 930.405 877.675 853.049 781.52 737.734 690.247 662.951 643.833 590.256 545.925 514.299 481.721 457.771 424.519 377.776 366.532 362.173 337.902 306.344 278.893 263.312 271.162 273.441 272.149 272.859 269.126 268.249 260.418 255.185 247.326 242.539 246.13 232.757 216.038 204.102 190.685 185.468 181.631 180.763 181.674 178.482 175.649 173.952 169.898 167.397 171.964 171.465 164.676 163.078 153.56 151.463 145.908 141.404 137.662 131.909 126.429 126.14 127.651 131.582 127.907 124.499 120.749 119.516 119.107 114.058 109.195 106.373 107.043 106.274 103.067 98.1638 92.7898 91.0251 87.456 81.2576 78.2193 77.3581 77.6213 78.6419 76.2539 71.7515 70.3869 69.8217 68.1194 63.7133 62.2998 60.3794 58.4264 56.1634 52.0986
260.565 0.00025 563.545 1574.33 2563.32 2130.11 1874.72 1557.83 1440.77 1292.67 1149.59 1001.02 931.739 876.631 851.786 781.697 735.808 689.981 663.605 641.96 590.072 544.81 513.383 481.715 456.517 423.446 377.008 364.718 360.639 338.167 307.542 278.152 262.737 270.471 272.718 271.532 273.047 269.222 268.556 260.431 255.316 247.589 242.201 245.6 232.544 216.708 204.692 190.906 185.381 182.309 181.27 181.282 177.984 175.385 174.335 170.193 167.418 171.828 171.174 164.455 162.648 153.039 150.868 145.499 140.982 137.403 132.072 126.523 126.376 127.725 131.277 127.316 124.42 120.654 119.668 119.196 114.26 109.401 106.365 106.961 106.269 103.291 98.3407 92.9643 91.1321 87.6867 81.1116 78.0356 77.1943 77.6304 78.5949 76.1581 71.5748 70.1798 69.8021 68.1547 63.6328 62.1846 60.315 58.3542 55.9993 52.0079
260.5675 0.00025 562.802 1571.23 2560.7 2126.35 1880.06 1554.61 1438.27 1292.52 1147.67 1002.53 932.112 875.445 850.462 781.683 733.866 689.558 664.293 639.995 590.06 543.88 512.608 481.82 455.21 422.179 376.307 362.979 358.959 338.307 308.676 277.64 262.24 269.895 271.882 270.957 273.238 269.308 268.8 260.541 255.454 247.954 241.882 245.085 232.262 217.369 205.181 191.193 185.31 182.992 181.812 180.857 177.521 175.116 174.688 170.499 167.444 171.644 170.892 164.242 162.233 152.561 150.2 145.094 140.619 137.112 132.204 126.609 126.595 127.822 130.992 126.762 124.358 120.552 119.789 119.263 114.453 109.622 106.386 106.894 106.24 103.506 98.5027 93.1508 91.2127 87.9285 81.0088 77.8424 77.0596 77.6134 78.5361 76.0518 71.4136 69.9816 69.7846 68.1823 63.5607 62.0734 60.2509 58.284 55.8323 51.9163
260.57 0.00025 562.162 1568.24 2556.9 2122.23 1884.52 1552.99 1435.58 1292.61 1145.67 1004.17 931.605 873.987 849.169 781.403 731.994 689.033 665.011 637.972 590.22 543.191 511.983 482.043 453.884 420.737 375.665 361.347 357.124 338.339 309.723 277.352 261.825 269.422 270.953 270.428 273.426 269.383 268.943 260.751 255.605 248.424 241.576 244.599 231.91 218.033 205.58 191.517 185.28 183.663 182.374 180.412 177.098 174.852 175 170.818 167.48 171.404 170.614 164.038 161.839 152.133 149.467 144.676 140.315 136.81 132.303 126.694 126.783 127.937 130.724 126.256 124.308 120.451 119.879 119.307 114.633 109.852 106.433 106.844 106.197 103.709 98.6517 93.344 91.2737 88.1701 80.956 77.642 76.9558 77.5691 78.4617 75.9361 71.2679 69.7945 69.7682 68.2022 63.4963 61.9669 60.187 58.2157 55.6628 51.8241
260.5725 0.00025 561.61 1565.39 2552.12 2117.85 1887.99 1552.89 1432.91 1292.76 1143.46 1005.87 930.364 872.174 848.014 780.81 730.228 688.494 665.709 635.938 590.536 542.785 511.519 482.39 452.568 419.154 375.069 359.852 355.132 338.284 310.663 277.277 261.5 269.03 269.961 269.945 273.606 269.441 268.962 261.058 255.768 249.008 241.282 244.145 231.495 218.697 205.92 191.847 185.307 184.307 182.941 179.961 176.722 174.603 175.264 171.151 167.531 171.101 170.338 163.848 161.467 151.761 148.682 144.23 140.063 136.521 132.362 126.786 126.929 128.063 130.472 125.806 124.267 120.357 119.936 119.331 114.796 110.09 106.506 106.811 106.146 103.893 98.7912 93.5372 91.3227 88.401 80.9576 77.4386 76.8826 77.4982 78.3678 75.8117 71.1367 69.6209 69.752 68.2146 63.4385 61.8659 60.1231 58.1494 55.491 51.7313
260.575 0.00025 561.096 1562.84 2546.71 2113.24 1890.46 1554.16 1430.49 1292.85 1140.98 1007.51 928.606 869.97 847.059 779.906 728.577 688.043 666.31 633.948 590.974 542.688 511.227 482.861 451.282 417.483 374.501 358.511 352.989 338.154 311.483 277.398 261.278 268.689 268.943 269.51 273.773 269.479 268.846 261.444 255.938 249.708 241.012 243.717 231.03 219.343 206.237 192.159 185.404 184.917 183.497 179.514 176.394 174.379 175.473 171.494 167.603 170.733 170.056 163.676 161.12 151.441 147.867 143.744 139.849 136.269 132.382 126.891 127.029 128.187 130.232 125.418 124.233 120.273 119.96 119.338 114.938 110.332 106.6 106.792 106.098 104.055 98.9257 93.723 91.3677 88.6124 81.0145 77.2382 76.8381 77.4033 78.2501 75.6795 71.0187 69.4631 69.7352 68.2201 63.386 61.7712 60.0588 58.0851 55.317 51.6382
260.5775 0.00025 560.617 1560.68 2540.96 2108.33 1892.1 1556.63 1428.5 1292.75 1138.23 1008.95 926.542 867.379 846.287 778.737 727.031 687.767 666.754 632.055 591.498 542.906 511.129 483.45 450.035 415.784 373.944 357.326 350.72 337.945 312.17 277.693 261.17 268.367 267.94 269.117 273.924 269.491 268.601 261.873 256.11 250.516 240.79 243.296 230.537 219.949 206.565 192.437 185.574 185.488 184.022 179.083 176.114 174.193 175.622 171.842 167.7 170.298 169.761 163.524 160.8 151.167 147.047 143.209 139.651 136.078 132.363 127.011 127.083 128.299 129.998 125.096 124.208 120.205 119.948 119.337 115.052 110.576 106.713 106.783 106.062 104.19 99.0603 93.8947 91.4158 88.7981 81.124 77.0485 76.8185 77.2885 78.1053 75.5402 70.9119 69.3232 69.717 68.2192 63.3375 61.6832 59.9943 58.0228 55.1413 51.5448
260.58 0.00025 560.19 1558.9 2535.12 2103.06 1893.16 1560.09 1427.12 1292.32 1135.31 1010.05 924.371 864.471 845.555 777.456 725.615 687.735 667.012 630.294 592.072 543.438 511.239 484.136 448.834 414.122 373.385 356.286 348.371 337.64 312.713 278.13 261.189 268.032 266.992 268.762 274.061 269.475 268.244 262.298 256.289 251.407 240.652 242.858 230.033 220.492 206.927 192.682 185.812 186.022 184.503 178.678 175.881 174.055 175.713 172.188 167.83 169.8 169.448 163.397 160.51 150.929 146.248 142.625 139.447 135.962 132.319 127.142 127.1 128.387 129.764 124.839 124.192 120.156 119.898 119.331 115.135 110.819 106.844 106.778 106.045 104.296 99.1997 94.0459 91.4731 88.9543 81.2801 76.8785 76.8194 77.158 77.931 75.3943 70.814 69.2029 69.6972 68.2126 63.2916 61.6022 59.9293 57.9623 54.9643 51.4512
260.5825 0.00025 559.835 1557.49 2529.43 2097.43 1893.87 1564.34 1426.43 1291.52 1132.34 1010.74 922.256 861.312 844.577 776.249 724.374 687.965 667.078 628.675 592.667 544.265 511.571 484.898 447.674 412.56 372.807 355.37 346.005 337.217 313.105 278.676 261.343 267.656 266.137 268.44 274.179 269.432 267.803 262.661 256.487 252.347 240.636 242.384 229.534 220.953 207.327 192.908 186.107 186.523 184.925 178.305 175.686 173.973 175.748 172.525 167.995 169.244 169.11 163.291 160.251 150.715 145.492 141.998 139.216 135.92 132.265 127.281 127.087 128.443 129.522 124.644 124.189 120.131 119.811 119.32 115.191 111.057 106.991 106.771 106.053 104.371 99.3478 94.1723 91.5436 89.0806 81.4737 76.7382 76.8357 77.0165 77.7264 75.2421 70.7221 69.1036 69.6755 68.2007 63.2472 61.5283 59.8641 57.9034 54.7867 51.3575
260.585 0.00025 559.518 1556.54 2524.12 2091.53 1894.44 1569.17 1426.49 1290.33 1129.41 1011.01 920.321 857.968 843.088 775.301 723.339 688.444 666.955 627.208 593.261 545.375 512.121 485.696 446.552 411.149 372.204 354.558 343.689 336.651 313.333 279.289 261.637 267.228 265.399 268.151 274.274 269.364 267.308 262.906 256.714 253.297 240.77 241.863 229.049 221.322 207.749 193.142 186.448 186.994 185.279 177.971 175.52 173.956 175.734 172.842 168.199 168.639 168.747 163.204 160.026 150.514 144.794 141.338 138.945 135.942 132.223 127.421 127.054 128.462 129.269 124.501 124.202 120.134 119.692 119.295 115.225 111.282 107.154 106.757 106.09 104.418 99.5074 94.2711 91.6298 89.179 81.6933 76.6372 76.8625 76.868 77.4923 75.0838 70.633 69.0259 69.6524 68.1841 63.2034 61.4612 59.7986 57.846 54.6085 51.2637
260.5875 0.00025 559.227 1556.03 2519.19 2085.6 1895.02 1574.39 1427.27 1288.8 1126.56 1010.99 918.644 854.48 840.901 774.66 722.51 689.126 666.657 625.899 593.839 546.74 512.878 486.496 445.463 409.927 371.577 353.831 341.485 335.932 313.392 279.932 262.076 266.741 264.793 267.897 274.337 269.277 266.786 262.985 256.977 254.22 241.066 241.305 228.587 221.599 208.163 193.414 186.819 187.444 185.56 177.682 175.374 174.003 175.682 173.133 168.439 167.994 168.358 163.127 159.838 150.318 144.163 140.66 138.629 136.004 132.214 127.562 127.01 128.441 129.003 124.396 124.232 120.167 119.552 119.246 115.25 111.488 107.33 106.731 106.155 104.441 99.6797 94.3423 91.7317 89.2541 81.926 76.584 76.8956 76.7154 77.2312 74.9192 70.5439 68.9693 69.6283 68.1631 63.1596 61.4005 59.7334 57.7895 54.4304 51.1699
260.59 0.00025 558.938 1555.92 2514.6 2079.82 1895.69 1579.81 1428.63 1286.98 1123.79 1010.8 917.259 850.881 837.957 774.245 721.872 689.919 666.207 624.749 594.394 548.331 513.828 487.26 444.409 408.917 370.932 353.175 339.432 335.063 313.275 280.571 262.66 266.197 264.327 267.676 274.354 269.178 266.261 262.873 257.272 255.091 241.515 240.719 228.148 221.79 208.528 193.751 187.208 187.88 185.768 177.438 175.242 174.108 175.609 173.389 168.712 167.325 167.943 163.052 159.685 150.122 143.601 139.979 138.27 136.08 132.254 127.703 126.959 128.381 128.727 124.314 124.277 120.233 119.405 119.16 115.272 111.67 107.518 106.692 106.243 104.447 99.8645 94.3877 91.848 89.3121 82.1586 76.5857 76.9324 76.5611 76.9473 74.7477 70.4524 68.9324 69.6043 68.1383 63.1155 61.3453 59.6687 57.7335 54.2528 51.076
260.5925 0.00025 558.642 1556.22 2510.18 2074.34 1896.51 1585.3 1430.4 1285.02 1121.09 1010.56 916.123 847.221 834.286 773.912 721.412 690.697 665.641 623.76 594.92 550.109 514.961 487.956 443.396 408.122 370.286 352.577 337.553 334.061 312.98 281.182 263.383 265.6 264.009 267.489 274.311 269.078 265.747 262.566 257.581 255.897 242.097 240.125 227.736 221.905 208.807 194.17 187.606 188.309 185.907 177.24 175.12 174.26 175.532 173.607 169.009 166.645 167.507 162.967 159.568 149.925 143.105 139.31 137.877 136.141 132.349 127.851 126.908 128.284 128.444 124.24 124.331 120.33 119.265 119.031 115.295 111.825 107.714 106.64 106.346 104.443 100.061 94.4115 91.9755 89.3605 82.3786 76.6466 76.9717 76.4058 76.6462 74.5687 70.357 68.9127 69.5818 68.1098 63.0709 61.2947 59.605 57.6774 54.0759 50.9821