260.5025 0.00025 4645.78 1892.29 1851.18 1982.38 1664.96 1511.98 1310.84 1191.03 1058.63 904.551 835.008 884.456 809.982 720.75 678.673 622.712 631.706 604.439 598.567 538.004 499.929 486.885 453.607 417.592 414.169 396.259 345.241 312.11 327.191 327.111 288.884 286.005 277.316 280.034 265.992 275.384 281.255 291.073 312.237 317.412 285.044 288.396 251.467 228.831 213.629 188.573 182.314 178.719 187.22 188.481 183.037 184.733 178.26 162.81 166.852 166.942 181.13 179.098 174.364 155.79 148.961 152.703 146.004 142.227 133.612 126.74 127.488 124.026 126.374 133.273 125.843 114.1 113.703 118.186 121.829 112.306 115.563 113.933 110.06 104.284 101.646 100.558 100.319 97.5099 85.9828 85.3812 83.9285 76.1628 79.0147 72.0283 79.236 84.5226 88.0708 92.6613 81.8228 82.2974 86.6595 94.8072 115.188 46.4145
260.505 0.00025 4642.63 1890.81 1855.64 1979.07 1665.13 1514.19 1314.66 1189.54 1056.49 907.57 834.431 882.95 813.374 717.054 679.993 623.746 630.55 603.418 597.933 537.341 500.194 485.797 453.113 416.063 412.488 397.09 345.153 311.352 328.199 327.233 287.378 286.713 277.928 278.152 264.445 274.497 281.327 290.35 311.921 318.873 284.013 288.67 253.057 229.544 214.307 188.938 182.274 179.124 186.418 187.857 183.125 184.563 177.396 162.551 166.786 167.476 180.394 178.672 174.758 155.132 147.621 152.526 146.128 142.505 133.473 126.123 126.954 124.675 125.735 132.998 125.996 115.312 114.012 118.273 121.63 112.137 115.659 114.116 109.885 104.589 101.807 100.565 99.7439 97.526 85.7363 85.3984 83.783 76.123 79.0751 71.7047 78.9937 84.5578 88.2375 92.9065 81.697 82.2597 86.6641 94.9226 115.238 46.4302
260.5075 0.00025 4639.01 1888.39 1858.76 1974.82 1665.4 1517.08 1318.02 1188.24 1053.4 911.49 834.368 880.758 816.671 714.073 681.18 625.215 629.179 602.487 596.921 536.839 500.637 484.622 452.561 414.77 410.657 397.709 345.179 310.545 329.221 327.304 286.082 287.114 278.941 275.933 263.004 273.722 281.133 290.251 311.135 320.116 283.21 288.702 254.684 230.368 214.949 189.315 182.292 179.589 185.584 187.311 183.217 184.346 176.527 162.348 166.63 168.03 179.503 178.351 175.149 154.572 146.302 152.221 146.207 142.86 133.384 125.586 126.326 125.284 125.142 132.633 125.99 116.567 114.504 118.355 121.407 111.99 115.728 114.315 109.702 104.88 101.963 100.631 99.146 97.4958 85.539 85.4115 83.6245 76.0993 79.1141 71.4367 78.7067 84.6022 88.395 93.1405 81.5791 82.2226 86.6699 95.0409 115.289 46.4451
260.51 0.00025 4635.09 1885.01 1860.82 1969.37 1665.88 1520.56 1320.71 1187.21 1049.63 915.978 834.943 878.157 819.608 712.019 682.042 627.149 627.556 601.624 595.568 536.541 501.173 483.375 451.945 413.696 408.803 397.991 345.303 309.758 330.2 327.305 285.023 287.244 280.259 273.45 261.697 273.102 280.607 290.692 310.098 320.975 282.684 288.499 256.309 231.297 215.61 189.674 182.393 180.083 184.727 186.847 183.302 184.08 175.679 162.175 166.428 168.544 178.483 178.126 175.544 154.095 145.027 151.797 146.221 143.278 133.354 125.136 125.64 125.812 124.597 132.212 125.829 117.807 115.183 118.444 121.175 111.865 115.77 114.509 109.535 105.147 102.114 100.74 98.5539 97.4072 85.3895 85.4232 83.4526 76.0939 79.1268 71.2269 78.3767 84.6534 88.5483 93.3565 81.4724 82.1852 86.6776 95.1613 115.342 46.4593
260.5125 0.00025 4630.86 1880.73 1862.06 1962.62 1666.57 1524.52 1322.52 1186.49 1045.49 920.608 836.328 875.371 821.967 711.011 682.456 629.512 625.7 600.803 593.906 536.469 501.714 482.064 451.268 412.822 407.032 397.835 345.502 309.066 331.089 327.203 284.22 287.157 281.761 270.798 260.536 272.663 279.749 291.49 309.065 321.329 282.447 288.082 257.896 232.311 216.34 189.989 182.602 180.58 183.862 186.461 183.37 183.766 174.871 162.004 166.226 168.958 177.369 177.981 175.954 153.686 143.81 151.27 146.161 143.73 133.398 124.773 124.936 126.232 124.093 131.759 125.541 118.971 116.039 118.554 120.951 111.763 115.79 114.68 109.405 105.379 102.265 100.873 97.9935 97.2516 85.284 85.4365 83.2671 76.1082 79.1104 71.0749 78.009 84.7069 88.703 93.548 81.3805 82.1464 86.6881 95.2832 115.397 46.473
260.515 0.00025 4626.38 1875.66 1862.55 1954.44 1667.52 1528.86 1323.38 1186.11 1041.32 924.922 838.693 872.579 823.549 711.083 682.374 632.198 623.692 599.977 591.983 536.631 502.19 480.702 450.53 412.122 405.425 397.178 345.738 308.547 331.849 326.956 283.683 286.915 283.322 268.08 259.518 272.418 278.62 292.409 308.281 321.124 282.465 287.481 259.406 233.387 217.186 190.252 182.932 181.051 183.008 186.14 183.414 183.413 174.11 161.816 166.065 169.22 176.195 177.896 176.384 153.34 142.657 150.651 146.026 144.182 133.532 124.489 124.25 126.524 123.619 131.279 125.17 120.005 117.049 118.698 120.757 111.683 115.791 114.808 109.327 105.568 102.422 101.014 97.4872 97.0245 85.2163 85.4553 83.0688 76.1413 79.0637 70.9772 77.6114 84.7567 88.8653 93.7082 81.3069 82.1051 86.7025 95.4061 115.452 46.4861
260.5175 0.00025 4621.63 1869.97 1862.39 1944.88 1668.82 1533.46 1323.23 1186.02 1037.45 928.445 842.154 869.964 824.185 712.199 681.82 635.049 621.636 599.097 589.865 537.01 502.556 479.304 449.726 411.572 404.03 396.004 345.952 308.284 332.459 326.519 283.42 286.566 284.832 265.392 258.634 272.372 277.307 293.202 307.93 320.395 282.669 286.725 260.804 234.499 218.178 190.474 183.386 181.473 182.186 185.866 183.427 183.036 173.396 161.595 165.975 169.292 174.988 177.853 176.834 153.06 141.569 149.955 145.828 144.59 133.773 124.277 123.616 126.681 123.172 130.76 124.774 120.869 118.176 118.887 120.613 111.628 115.778 114.88 109.315 105.707 102.587 101.149 97.0519 96.7263 85.1789 85.4831 82.8593 76.1911 78.988 70.928 77.1938 84.7959 89.0413 93.8306 81.2553 82.06 86.7221 95.5295 115.509 46.4989
260.52 0.00025 4616.67 1863.72 1861.64 1933.96 1670.61 1538.26 1322.06 1186.18 1034.16 930.838 846.69 867.749 823.75 714.281 680.855 637.903 619.628 598.132 587.649 537.555 502.795 477.897 448.853 411.138 402.86 394.343 346.073 308.346 332.912 325.852 283.431 286.137 286.215 262.822 257.871 272.52 275.91 293.664 308.095 319.261 282.97 285.84 262.054 235.619 219.328 190.684 183.956 181.83 181.419 185.615 183.408 182.653 172.718 161.343 165.967 169.158 173.764 177.838 177.294 152.857 140.54 149.188 145.583 144.914 134.132 124.13 123.058 126.702 122.752 130.175 124.404 121.546 119.372 119.127 120.536 111.605 115.75 114.887 109.374 105.796 102.764 101.268 96.6984 96.362 85.1627 85.5228 82.6411 76.2535 78.8863 70.9198 76.7669 84.8172 89.2364 93.9096 81.2287 82.0101 86.7481 95.6529 115.567 46.5114
260.5225 0.00025 4611.51 1856.97 1860.4 1921.87 1672.97 1543.23 1319.9 1186.62 1031.61 931.965 852.059 866.171 822.201 717.199 679.572 640.592 617.721 597.077 585.452 538.193 502.909 476.518 447.907 410.784 401.896 392.26 346.023 308.779 333.218 324.935 283.705 285.636 287.425 260.435 257.221 272.852 274.514 293.661 308.747 317.916 283.278 284.855 263.116 236.73 220.625 190.936 184.622 182.116 180.727 185.36 183.358 182.285 172.06 161.069 166.031 168.825 172.535 177.839 177.753 152.741 139.569 148.357 145.314 145.116 134.611 124.047 122.591 126.591 122.371 129.491 124.103 122.042 120.579 119.421 120.538 111.626 115.71 114.824 109.503 105.833 102.952 101.363 96.4313 95.9405 85.1581 85.5766 82.4181 76.3232 78.763 70.9439 76.3416 84.8145 89.455 93.9403 81.2301 81.9541 86.7817 95.776 115.626 46.5237
260.525 0.00025 4606.18 1849.76 1858.82 1908.9 1675.87 1548.3 1316.78 1187.49 1029.77 931.945 857.775 865.444 819.631 720.726 678.109 642.946 615.962 595.944 583.397 538.834 502.904 475.211 446.889 410.466 401.098 389.846 345.739 309.595 333.401 323.772 284.209 285.061 288.453 258.278 256.676 273.346 273.184 293.139 309.751 316.586 283.519 283.796 263.942 237.819 222.035 191.293 185.356 182.331 180.125 185.072 183.28 181.948 171.405 160.79 166.141 168.318 171.301 177.846 178.199 152.719 138.653 147.466 145.042 145.169 135.198 124.033 122.225 126.356 122.043 128.682 123.888 122.388 121.74 119.767 120.625 111.706 115.655 114.694 109.696 105.826 103.147 101.433 96.2493 95.4737 85.1563 85.6452 82.1951 76.3935 78.6236 70.9916 75.9281 84.7828 89.6994 93.9189 81.2619 81.8912 86.8239 95.8987 115.685 46.5359
260.5275 0.00025 4600.62 1842.12 1857.08 1895.35 1679.17 1553.33 1312.8 1188.99 1028.45 931.121 863.2 865.668 816.314 724.551 676.633 644.802 614.403 594.756 581.603 539.397 502.799 474.028 445.804 410.149 400.417 387.196 345.174 310.767 333.498 322.401 284.888 284.409 289.301 256.386 256.225 273.981 271.958 292.119 310.909 315.486 283.648 282.696 264.488 238.869 223.513 191.825 186.133 182.481 179.624 184.725 183.183 181.657 170.738 160.526 166.259 167.681 170.061 177.847 178.626 152.792 137.798 146.521 144.782 145.064 135.873 124.096 121.962 126.009 121.783 127.737 123.749 122.632 122.805 120.156 120.795 111.864 115.586 114.501 109.942 105.784 103.342 101.483 96.1459 94.9758 85.1492 85.7275 81.978 76.4568 78.4736 71.0543 75.5348 84.7195 89.9704 93.8435 81.3255 81.8208 86.8758 96.0208 115.744 46.5479
260.53 0.00025 4594.89 1833.99 1855.23 1881.48 1682.65 1558.09 1308.13 1191.36 1027.37 929.95 867.677 866.769 812.672 728.299 675.321 646.032 613.099 593.525 580.157 539.807 502.613 473.011 444.666 409.807 399.809 384.393 344.31 312.234 333.543 320.89 285.676 283.69 289.976 254.786 255.853 274.723 270.851 290.669 312.003 314.785 283.657 281.587 264.73 239.849 225.01 192.596 186.93 182.577 179.23 184.295 183.075 181.418 170.053 160.295 166.342 166.965 168.81 177.83 179.027 152.953 137.006 145.532 144.54 144.802 136.603 124.249 121.796 125.563 121.599 126.664 123.649 122.831 123.736 120.571 121.038 112.122 115.503 114.254 110.224 105.718 103.528 101.518 96.1111 94.4614 85.1309 85.8203 81.7735 76.5055 78.3187 71.125 75.1679 84.6242 90.2663 93.7133 81.4218 81.7427 86.9378 96.1426 115.803 46.56
260.5325 0.00025 4589.09 1825.42 1853.31 1867.59 1685.98 1562.35 1302.98 1194.8 1026.27 928.849 870.669 868.479 809.209 731.6 674.296 646.603 612.084 592.279 579.111 540.023 502.366 472.197 443.493 409.418 399.244 381.496 343.166 313.908 333.571 319.332 286.488 282.924 290.473 253.511 255.541 275.532 269.865 288.887 312.827 314.581 283.575 280.498 264.677 240.71 226.48 193.653 187.74 182.627 178.943 183.762 182.968 181.23 169.352 160.109 166.349 166.219 167.548 177.783 179.402 153.194 136.283 144.517 144.311 144.402 137.349 124.505 121.722 125.032 121.493 125.494 123.532 123.037 124.518 120.99 121.338 112.497 115.412 113.964 110.525 105.643 103.692 101.548 96.1324 93.9442 85.0983 85.9184 81.5885 76.532 78.1636 71.1981 74.831 84.4992 90.5835 93.5296 81.5503 81.657 87.0103 96.2642 115.861 46.572
260.535 0.00025 4583.33 1816.36 1851.2 1853.93 1688.83 1565.91 1297.55 1199.32 1025.02 928.098 871.887 870.413 806.384 734.179 673.596 646.599 611.344 591.072 578.464 540.03 502.065 471.604 442.309 408.968 398.705 378.541 341.8 315.677 333.604 317.833 287.241 282.145 290.776 252.594 255.269 276.363 268.994 286.885 313.229 314.893 283.461 279.446 264.377 241.385 227.874 195.026 188.565 182.643 178.759 183.117 182.872 181.088 168.648 159.965 166.25 165.491 166.277 177.692 179.746 153.502 135.628 143.499 144.08 143.892 138.068 124.874 121.732 124.43 121.459 124.272 123.341 123.288 125.153 121.391 121.671 113.002 115.321 113.642 110.826 105.575 103.823 101.584 96.1965 93.4361 85.0513 86.0147 81.43 76.5298 78.0115 71.2701 74.5252 84.3492 90.9163 93.2951 81.7096 81.5644 87.0933 96.3864 115.918 46.584
260.5375 0.00025 4577.8 1806.92 1848.84 1840.85 1690.93 1568.67 1292.06 1204.82 1023.61 927.802 871.3 872.137 804.518 735.899 673.161 646.178 610.851 589.966 578.173 539.827 501.715 471.234 441.139 408.459 398.188 375.549 340.286 317.426 333.658 316.5 287.859 281.39 290.865 252.065 255.022 277.16 268.227 284.767 313.115 315.673 283.393 278.43 263.913 241.813 229.139 196.716 189.425 182.632 178.669 182.358 182.794 180.982 167.962 159.858 166.024 164.813 165.005 177.549 180.054 153.873 135.036 142.51 143.827 143.309 138.718 125.365 121.818 123.771 121.488 123.047 123.025 123.598 125.662 121.755 122.009 113.642 115.248 113.297 111.11 105.526 103.908 101.636 96.2914 92.9459 84.9931 86.101 81.304 76.4942 77.8644 71.3391 74.2493 84.1808 91.2576 93.014 81.8972 81.4662 87.1864 96.5096 115.975 46.5958
260.54 0.00025 4572.67 1797.17 1846.06 1828.59 1692.11 1570.61 1286.73 1211.02 1022.19 927.945 869.106 873.285 803.73 736.819 672.855 645.528 610.594 589.001 578.165 539.444 501.308 471.068 440.004 407.909 397.687 372.541 338.705 319.053 333.731 315.422 288.283 280.688 290.724 251.938 254.796 277.863 267.565 282.625 312.445 316.823 283.453 277.434 263.381 241.966 230.21 198.7 190.348 182.606 178.659 181.494 182.736 180.899 167.319 159.771 165.665 164.209 163.745 177.345 180.316 154.302 134.498 141.578 143.532 142.688 139.263 125.977 121.977 123.062 121.572 121.864 122.556 123.954 126.079 122.069 122.32 114.414 115.211 112.943 111.363 105.509 103.937 101.714 96.4072 92.4789 84.9296 86.1683 81.215 76.4226 77.7219 71.4053 74.0002 84.0022 91.599 92.6918 82.1097 81.3642 87.2888 96.6347 116.029 46.6074
260.5425 0.00025 4568.11 1787.11 1842.65 1817.38 1692.31 1571.76 1281.79 1217.56 1020.93 928.45 865.65 873.653 803.917 737.155 672.509 644.812 610.613 588.17 578.338 538.928 500.846 471.064 438.923 407.364 397.184 369.539 337.125 320.483 333.813 314.658 288.484 280.056 290.357 252.21 254.596 278.411 267.014 280.536 311.222 318.218 283.719 276.441 262.863 241.862 231.009 200.934 191.367 182.583 178.709 180.543 182.696 180.827 166.745 159.68 165.178 163.685 162.515 177.076 180.519 154.786 134.005 140.732 143.178 142.06 139.677 126.707 122.206 122.307 121.702 120.761 121.927 124.325 126.439 122.334 122.571 115.3 115.235 112.59 111.573 105.53 103.905 101.823 96.5371 92.0367 84.8687 86.2081 81.1652 76.3153 77.5816 71.4701 73.7735 83.8224 91.9316 92.335 82.3424 81.2608 87.399 96.7628 116.082 46.6187
260.545 0.00025 4564.29 1776.83 1838.46 1807.45 1691.58 1572.03 1277.45 1224.01 1020.05 929.218 861.366 873.2 804.801 737.222 671.962 644.149 610.976 587.422 578.595 538.359 500.326 471.165 437.905 406.886 396.644 366.577 335.598 321.674 333.895 314.226 288.458 279.488 289.789 252.847 254.448 278.75 266.583 278.556 309.481 319.731 284.239 275.438 262.413 241.572 231.463 203.341 192.51 182.587 178.794 179.534 182.667 180.756 166.265 159.565 164.578 163.238 161.335 176.739 180.648 155.324 133.551 139.986 142.761 141.447 139.946 127.542 122.503 121.512 121.869 119.764 121.154 124.664 126.772 122.563 122.731 116.277 115.34 112.251 111.732 105.593 103.81 101.963 96.678 91.6177 84.8191 86.2136 81.1535 76.1762 77.4396 71.5363 73.5639 83.6505 92.2468 91.9508 82.5903 81.159 87.5155 96.8948 116.133 46.6295
260.5475 0.00025 4561.46 1766.48 1833.28 1799.01 1690.04 1571.34 1273.88 1229.91 1019.7 930.152 856.737 871.987 805.986 737.338 671.101 643.584 611.738 586.685 578.851 537.828 499.745 471.289 436.964 406.544 396.025 363.703 334.153 322.616 333.964 314.099 288.237 278.958 289.07 253.793 254.385 278.837 266.278 276.725 307.28 321.246 285.034 274.432 262.045 241.199 231.527 205.818 193.797 182.652 178.887 178.501 182.637 180.678 165.895 159.408 163.882 162.857 160.228 176.333 180.689 155.909 133.139 139.346 142.284 140.859 140.067 128.462 122.87 120.68 122.061 118.894 120.267 124.921 127.095 122.78 122.776 117.31 115.548 111.941 111.837 105.696 103.655 102.133 96.8303 91.2175 84.7895 86.1807 81.1752 76.0119 77.29 71.6065 73.3662 83.4947 92.5365 91.5466 82.8473 81.0619 87.6362 97.0317 116.183 46.6396
260.55 0.00025 4559.79 1756.22 1826.9 1792.24 1687.73 1569.63 1271.17 1234.88 1019.95 931.17 852.258 870.13 807.03 737.766 669.903 643.065 612.921 585.908 579.044 537.432 499.095 471.349 436.123 406.396 395.284 360.974 332.795 323.329 334.011 314.209 287.875 278.422 288.273 254.962 254.444 278.649 266.095 275.063 304.704 322.651 286.093 273.457 261.737 240.843 231.211 208.236 195.231 182.818 178.966 177.48 182.592 180.591 165.644 159.197 163.11 162.527 159.211 175.86 180.633 156.53 132.779 138.802 141.764 140.298 140.052 129.442 123.305 119.818 122.259 118.169 119.305 125.058 127.41 123.012 122.696 118.357 115.871 111.678 111.888 105.833 103.45 102.323 96.9973 90.8306 84.7864 86.1091 81.2217 75.8321 77.1271 71.6837 73.1757 83.3625 92.7936 91.1296 83.1071 80.9731 87.7589 97.1744 116.23 46.6488
260.5525 0.00025 4559.41 1746.24 1819.17 1787.22 1684.67 1566.9 1269.31 1238.54 1020.84 932.192 848.379 867.761 807.505 738.679 668.433 642.474 614.503 585.07 579.128 537.264 498.38 471.253 435.421 406.48 394.391 358.449 331.511 323.854 334.031 314.468 287.441 277.825 287.476 256.264 254.653 278.186 266.014 273.578 301.858 323.838 287.382 272.564 261.453 240.578 230.588 210.452 196.797 183.123 179.014 176.505 182.516 180.497 165.508 158.928 162.282 162.229 158.303 175.324 180.471 157.17 132.489 138.335 141.223 139.758 139.916 130.457 123.808 118.938 122.439 117.605 118.302 125.047 127.703 123.29 122.49 119.372 116.312 111.481 111.89 105.996 103.207 102.524 97.184 90.4517 84.8133 86.0028 81.2808 75.6481 76.945 71.7697 72.9884 83.2593 93.0127 90.7067 83.3635 80.8962 87.8814 97.3238 116.276 46.6569
260.555 0.00025 4560.52 1736.78 1810.11 1783.92 1680.88 1563.19 1268.27 1240.67 1022.31 933.163 845.43 864.994 807.068 740.146 666.841 641.65 616.445 584.203 579.042 537.417 497.613 470.921 434.899 406.808 393.343 356.186 330.273 324.245 334.024 314.78 287.001 277.115 286.75 257.609 255.034 277.469 266.004 272.266 298.863 324.703 288.846 271.813 261.154 240.431 229.792 212.328 198.452 183.603 179.027 175.608 182.396 180.401 165.473 158.607 161.414 161.943 157.519 174.724 180.205 157.804 132.293 137.921 140.683 139.233 139.681 131.477 124.376 118.055 122.571 117.214 117.295 124.878 127.952 123.633 122.176 120.312 116.862 111.372 111.85 106.174 102.94 102.723 97.3959 90.0769 84.8693 85.8703 81.3378 75.4716 76.7395 71.8653 72.8019 83.1893 93.19 90.2838 83.6103 80.8349 88.0015 97.4806 116.32 46.6638
260.5575 0.00025 4563.3 1728.01 1799.83 1782.27 1676.42 1558.5 1268.02 1241.05 1024.36 934.087 843.575 861.918 805.459 742.142 665.333 640.43 618.688 583.359 578.71 537.96 496.816 470.297 434.601 407.367 392.152 354.234 329.053 324.555 333.987 315.06 286.613 276.254 286.15 258.927 255.583 276.536 266.025 271.12 295.845 325.152 290.429 271.26 260.818 240.385 228.979 213.765 200.129 184.277 179.016 174.811 182.222 180.313 165.513 158.246 160.522 161.651 156.868 174.063 179.84 158.407 132.211 137.538 140.161 138.72 139.366 132.477 125.002 117.186 122.629 117.001 116.315 124.556 128.126 124.054 121.782 121.135 117.503 111.37 111.78 106.354 102.666 102.904 97.6378 89.7053 84.9491 85.7234 81.3769 75.3134 76.5087 71.9698 72.6146 83.1543 93.3236 89.8664 83.8416 80.7922 88.1171 97.6455 116.362 46.6695
260.56 0.00025 4567.81 1720.06 1788.51 1782.14 1671.5 1552.89 1268.54 1239.6 1026.94 935.016 842.82 858.619 802.575 744.563 664.103 638.74 621.152 582.617 578.053 538.921 496.012 469.358 434.559 408.126 390.848 352.618 327.83 324.828 333.913 315.239 286.312 275.222 285.703 260.173 256.283 275.439 266.029 270.12 292.918 325.111 292.068 270.945 260.452 240.38 228.298 214.723 201.741 185.14 179.008 174.129 181.989 180.24 165.596 157.867 159.616 161.336 156.357 173.341 179.388 158.951 132.26 137.17 139.665 138.223 138.989 133.438 125.677 116.349 122.589 116.959 115.395 124.096 128.197 124.55 121.349 121.807 118.207 111.492 111.695 106.526 102.401 103.057 97.9126 89.3394 85.0437 85.5768 81.3823 75.1818 76.253 72.0809 72.4262 83.1547 93.4132 89.4586 84.0526 80.771 88.2267 97.8188 116.404 46.6734
260.5625 0.00025 4574.07 1712.93 1776.36 1783.36 1666.46 1546.42 1269.72 1236.37 1030.05 936.032 843.055 855.187 798.456 747.289 663.288 636.617 623.703 582.063 577 540.28 495.227 468.113 434.775 409.051 389.47 351.34 326.607 325.097 333.794 315.28 286.113 274.021 285.408 261.332 257.099 274.232 265.977 269.247 290.18 324.537 293.701 270.88 260.09 240.341 227.862 215.224 203.195 186.164 179.043 173.572 181.699 180.189 165.688 157.492 158.709 160.984 155.985 172.562 178.86 159.415 132.444 136.811 139.195 137.752 138.563 134.34 126.387 115.563 122.436 117.069 114.563 123.521 128.142 125.108 120.92 122.303 118.94 111.747 111.613 106.682 102.159 103.17 98.2208 88.9845 85.1405 85.446 81.3409 75.0813 75.976 72.1953 72.2375 83.1894 93.4603 89.0635 84.2389 80.7734 88.329 98.0007 116.447 46.6757
260.565 0.00025 4582.14 1706.54 1763.63 1785.72 1661.62 1539.18 1271.42 1231.52 1033.68 937.234 844.119 851.673 793.26 750.178 662.92 634.205 626.182 581.773 575.507 541.97 494.483 466.606 435.222 410.119 388.066 350.369 325.411 325.364 333.612 315.168 286.013 272.676 285.238 262.412 257.985 272.969 265.84 268.477 287.702 323.416 295.268 271.048 259.788 240.196 227.728 215.342 204.414 187.29 179.165 173.143 181.358 180.163 165.754 157.145 157.812 160.588 155.747 171.728 178.271 159.783 132.758 136.464 138.74 137.319 138.104 135.17 127.118 114.845 122.16 117.306 113.844 122.858 127.943 125.703 120.536 122.612 119.667 112.134 111.554 106.818 101.95 103.236 98.5598 88.6487 85.2253 85.3455 81.2434 75.0121 75.6835 72.3086 72.0499 83.2556 93.4678 88.6832 84.3972 80.8008 88.4234 98.1908 116.49 46.6761
260.5675 0.00025 4591.95 1700.81 1750.48 1789.1 1657.31 1531.37 1273.43 1225.37 1037.79 938.697 845.878 848.097 787.234 753.106 662.943 631.705 628.419 581.795 573.569 543.89 493.804 464.911 435.83 411.312 386.684 349.65 324.294 325.622 333.348 314.915 285.988 271.23 285.15 263.43 258.892 271.692 265.608 267.781 285.546 321.757 296.72 271.401 259.613 239.893 227.896 215.186 205.351 188.434 179.413 172.847 180.981 180.16 165.765 156.844 156.936 160.143 155.629 170.847 177.632 160.049 133.182 136.141 138.288 136.936 137.63 135.914 127.85 114.215 121.76 117.637 113.258 122.139 127.596 126.308 120.233 122.736 120.351 112.645 111.537 106.932 101.784 103.252 98.9243 88.3419 85.2841 85.2873 81.0855 74.9701 75.3836 72.4166 71.8652 83.3497 93.4394 88.3187 84.5252 80.8538 88.5097 98.3885 116.535 46.6743
260.57 0.00025 4603.54 1695.58 1736.99 1793.32 1653.65 1523.34 1275.49 1218.31 1042.29 940.449 848.22 844.453 780.69 755.921 663.269 629.298 630.294 582.123 571.251 545.923 493.222 463.112 436.508 412.614 385.373 349.111 323.312 325.85 332.977 314.546 286.004 269.738 285.101 264.406 259.776 270.435 265.288 267.125 283.754 319.588 298.015 271.879 259.616 239.42 228.312 214.872 205.997 189.502 179.814 172.689 180.584 180.17 165.702 156.601 156.095 159.65 155.613 169.93 176.948 160.218 133.69 135.858 137.826 136.605 137.165 136.564 128.566 113.687 121.237 118.029 112.812 121.392 127.107 126.89 120.034 122.691 120.959 113.258 111.583 107.031 101.662 103.219 99.3061 88.0742 85.3041 85.2788 80.869 74.9469 75.0852 72.5148 71.6857 83.4669 93.38 87.9705 84.6216 80.9324 88.5885 98.5929 116.584 46.6702
260.5725 0.00025 4616.71 1690.72 1723.26 1798.26 1650.6 1515.58 1277.33 1210.78 1047.05 942.488 851.048 840.709 773.995 758.422 663.826 627.103 631.756 582.684 568.664 547.947 492.771 461.295 437.144 414.012 384.18 348.681 322.518 326.033 332.475 314.093 286.025 268.257 285.051 265.355 260.595 269.227 264.902 266.473 282.354 316.954 299.122 272.417 259.817 238.809 228.883 214.509 206.378 190.404 180.372 172.678 180.189 180.176 165.556 156.418 155.304 159.114 155.672 168.991 176.223 160.302 134.246 135.631 137.35 136.321 136.735 137.112 129.243 113.274 120.602 118.448 112.509 120.642 126.498 127.413 119.951 122.506 121.461 113.946 111.705 107.127 101.585 103.144 99.6947 87.8553 85.2756 85.3221 80.6011 74.9315 74.7973 72.5999 71.514 83.6016 93.2947 87.6384 84.6859 81.0358 88.6607 98.8026 116.637 46.6634
260.575 0.00025 4631.39 1686.19 1709.41 1803.87 1647.97 1508.7 1278.73 1203.24 1051.9 944.822 854.254 836.797 767.541 760.346 664.59 625.172 632.812 583.365 565.96 549.83 492.488 459.537 437.628 415.487 383.147 348.296 321.948 326.158 331.817 313.59 286.012 266.848 284.969 266.28 261.314 268.093 264.483 265.795 281.351 313.922 300.01 272.968 260.19 238.138 229.494 214.19 206.547 191.071 181.064 172.823 179.821 180.159 165.329 156.292 154.577 158.544 155.779 168.047 175.454 160.32 134.816 135.473 136.861 136.07 136.369 137.558 129.864 112.984 119.869 118.864 112.343 119.908 125.8 127.847 119.984 122.215 121.836 114.676 111.912 107.236 101.548 103.037 100.078 87.6928 85.1935 85.4138 80.2943 74.9112 74.5279 72.669 71.3528 83.7477 93.1891 87.3219 84.7182 81.1626 88.7277 99.0161 116.696 46.6539
260.5775 0.00025 4647.4 1681.86 1695.57 1810.07 1645.57 1503.29 1279.5 1196.14 1056.63 947.474 857.726 832.641 761.711 761.384 665.561 623.503 633.499 584.064 563.297 551.443 492.405 457.892 437.875 416.999 382.307 347.909 321.616 326.223 330.989 313.068 285.931 265.571 284.832 267.18 261.896 267.054 264.065 265.077 280.715 310.594 300.639 273.515 260.668 237.513 230.025 213.98 206.565 191.466 181.848 173.13 179.509 180.092 165.035 156.212 153.926 157.953 155.905 167.116 174.637 160.293 135.368 135.39 136.374 135.831 136.09 137.907 130.413 112.815 119.055 119.249 112.303 119.2 125.053 128.164 120.125 121.857 122.069 115.412 112.207 107.377 101.546 102.912 100.443 87.5917 85.0575 85.5447 79.9647 74.8728 74.2833 72.7207 71.2055 83.8984 93.0688 87.0202 84.7188 81.311 88.7913 99.2318 116.761 46.6417
260.58 0.00025 4664.63 1677.66 1681.9 1816.7 1643.19 1499.81 1279.5 1189.82 1061.01 950.448 861.364 828.163 756.818 761.255 666.771 622.069 633.867 584.712 560.828 552.662 492.547 456.399 437.839 418.495 381.688 347.495 321.515 326.233 329.979 312.551 285.747 264.485 284.621 268.052 262.303 266.141 263.673 264.331 280.375 307.1 300.963 274.069 261.153 237.047 230.382 213.917 206.488 191.584 182.667 173.594 179.282 179.952 164.691 156.165 153.361 157.355 156.022 166.214 173.766 160.241 135.881 135.378 135.904 135.581 135.915 138.172 130.877 112.761 118.184 119.579 112.374 118.525 124.294 128.349 120.356 121.467 122.16 116.118 112.582 107.572 101.573 102.786 100.777 87.5535 84.8725 85.7009 79.6309 74.8048 74.0677 72.754 71.0759 84.0468 92.9392 86.7325 84.6884 81.4792 88.8536 99.4481 116.833 46.6267
260.5825 0.00025 4682.88 1673.53 1668.49 1823.56 1640.7 1498.49 1278.7 1184.52 1064.86 953.746 865.1 823.307 753.064 759.767 668.233 620.812 633.942 585.309 558.652 553.391 492.924 455.072 437.522 419.909 381.302 347.046 321.618 326.198 328.784 312.058 285.43 263.643 284.323 268.891 262.498 265.389 263.316 263.598 280.218 303.586 300.94 274.655 261.545 236.827 230.512 214.004 206.369 191.448 183.463 174.201 179.168 179.716 164.321 156.134 152.886 156.77 156.103 165.354 172.841 160.177 136.342 135.426 135.474 135.303 135.85 138.367 131.255 112.808 117.279 119.835 112.538 117.888 123.555 128.4 120.651 121.076 122.117 116.759 113.026 107.841 101.623 102.674 101.068 87.5765 84.6477 85.8652 79.3118 74.6978 73.8825 72.7682 70.9681 84.1857 92.8052 86.4583 84.6279 81.665 88.9169 99.6632 116.913 46.6091
260.585 0.00025 4702 1669.36 1655.58 1830.44 1637.98 1499.29 1277.23 1180.27 1068.06 957.326 868.899 818.072 750.511 756.91 669.93 619.667 633.733 585.914 556.809 553.585 493.526 453.923 436.955 421.162 381.156 346.57 321.889 326.124 327.411 311.599 284.956 263.087 283.934 269.695 262.445 264.837 262.983 262.943 280.099 300.203 300.548 275.284 261.767 236.896 230.415 214.218 206.252 191.095 184.191 174.921 179.19 179.372 163.946 156.106 152.504 156.212 156.126 164.545 171.859 160.109 136.751 135.519 135.1 134.988 135.889 138.51 131.548 112.943 116.361 120.004 112.774 117.295 122.856 128.332 120.98 120.705 121.96 117.304 113.518 108.2 101.697 102.594 101.306 87.6555 84.3957 86.0184 79.0252 74.5458 73.7273 72.7634 70.8866 84.3085 92.6713 86.1968 84.5379 81.8665 88.9831 99.8753 117.002 46.5888
260.5875 0.00025 4721.91 1665.05 1643.28 1837.07 1635.08 1501.95 1275.36 1176.98 1070.59 961.12 872.755 812.515 749.044 752.886 671.811 618.575 633.225 586.614 555.289 553.241 494.326 452.96 436.198 422.177 381.248 346.085 322.288 326.013 325.874 311.178 284.312 262.847 283.461 270.458 262.116 264.519 262.649 262.453 279.865 297.074 299.798 275.951 261.786 237.236 230.143 214.509 206.176 190.571 184.823 175.714 179.362 178.921 163.581 156.071 152.21 155.699 156.076 163.794 170.823 160.036 137.115 135.642 134.796 134.638 136.013 138.616 131.768 113.148 115.452 120.076 113.061 116.752 122.205 128.167 121.313 120.369 121.716 117.729 114.035 108.658 101.796 102.561 101.483 87.7827 84.1318 86.1411 78.7861 74.3467 73.599 72.7396 70.8355 84.4093 92.5411 85.9476 84.4193 82.0819 89.0543 100.083 117.1 46.5662
260.59 0.00025 4742.45 1660.57 1631.72 1843.07 1632.02 1506.03 1273.49 1174.4 1072.46 965.029 876.685 806.75 748.388 748.074 673.775 617.53 632.375 587.483 554.053 552.405 495.279 452.2 435.318 422.876 381.572 345.614 322.774 325.857 324.2 310.792 283.494 262.932 282.911 271.179 261.494 264.453 262.28 262.214 279.377 294.282 298.741 276.613 261.609 237.783 229.781 214.821 206.168 189.912 185.354 176.533 179.683 178.378 163.234 156.024 151.997 155.243 155.946 163.101 169.739 159.952 137.447 135.78 134.564 134.264 136.201 138.697 131.927 113.413 114.571 120.039 113.382 116.265 121.604 127.936 121.621 120.076 121.411 118.02 114.55 109.214 101.928 102.588 101.594 87.948 83.8718 86.2159 78.6057 74.103 73.4927 72.6975 70.8179 84.4839 92.4174 85.7099 84.273 82.3097 89.1321 100.286 117.208 46.5413
260.5925 0.00025 4763.64 1655.88 1620.97 1848.1 1628.92 1510.96 1272.08 1172.25 1073.7 968.966 880.68 800.93 748.131 742.933 675.681 616.56 631.125 588.565 553.059 551.151 496.32 451.666 434.388 423.194 382.116 345.178 323.314 325.646 322.42 310.435 282.512 263.329 282.299 271.858 260.585 264.635 261.852 262.293 278.538 291.853 297.461 277.205 261.277 238.436 229.428 215.107 206.246 189.155 185.791 177.332 180.134 177.776 162.904 155.965 151.853 154.851 155.734 162.461 168.618 159.845 137.765 135.92 134.404 133.884 136.426 138.757 132.041 113.726 113.736 119.884 113.722 115.836 121.05 127.665 121.883 119.829 121.069 118.174 115.037 109.86 102.106 102.687 101.638 88.14 83.631 86.2281 78.49 73.8209 73.4018 72.6384 70.8355 84.53 92.3017 85.4832 84.1 82.5483 89.218 100.482 117.324 46.5144