260.5025 0.00025 1067.68 1051.07 1640.03 1843.2 1699.97 1510.58 1337.94 1235.44 1095.47 992.064 995.296 1038.05 934.983 842.091 796.939 754.708 729.949 704.15 677.964 617.955 593.405 573.727 515.611 489.012 458.8 444.191 449.605 430.764 382.761 357.885 349.509 345.184 362.847 393.251 386.828 361.361 351.871 346.051 345.935 343.162 309.154 304.766 275.941 262.215 247.562 237.342 232.356 238.942 237.284 232.844 236.513 217.14 210.882 219.244 224.954 239.699 248.188 223.282 202.408 186.112 182.775 184.722 178.988 174.568 168.575 158.404 150.362 152.505 161.736 173.901 182.788 176.167 168.139 159.323 148.703 136.629 132.085 137.019 142.411 139.988 132.751 132.012 138.707 130.129 118.711 113.455 113.068 109.907 107.116 108.296 111.948 105.311 107.329 109.039 104.21 109.967 111.789 118.154 139.789 50.0221
260.505 0.00025 1068.21 1052.34 1641.43 1841.18 1695.33 1509.36 1337.93 1233.81 1093.63 991.064 992.086 1037.91 937.358 837.968 798.15 755.94 729.037 704.306 677.74 617.444 593.608 573.589 515.67 486.462 459.496 444.367 449.412 429.116 382.618 358.427 346.481 345.44 364.929 393.566 385.722 361.618 352.463 345.034 344.652 344.09 309.904 305.342 275.098 262.397 248.706 236.873 231.785 238.472 237.115 232.636 237.267 217.488 210.144 218.859 225.229 239.592 247.629 221.958 202.442 186.555 182.691 184.266 178.566 174.438 168.958 158.821 150.827 152.554 161.313 173.315 182.434 176.688 168.484 159.79 149.12 136.546 131.49 136.799 142.477 139.59 133.038 132.646 138.893 129.501 118.822 113.326 113.04 109.44 106.982 107.898 111.867 105.498 106.943 108.339 104.501 110.031 111.257 118.042 139.624 50.0651
260.5075 0.00025 1069.09 1053.32 1642.46 1838.86 1690.31 1507.77 1337.75 1232.32 1091.87 990.354 989.479 1036.69 940.301 833.761 799.055 757.517 727.888 704.47 677.333 616.89 594.282 573.146 516.01 483.973 460.126 444.751 449.073 427.07 382.561 358.942 343.567 345.657 366.889 394.062 384.47 361.958 353.068 344.266 343.11 344.972 310.789 305.937 274.362 262.332 249.87 236.446 231.294 238.106 236.985 232.392 237.889 217.874 209.496 218.417 225.517 239.455 247.053 220.637 202.391 187.059 182.622 183.854 178.128 174.293 169.232 159.315 151.385 152.569 160.863 172.798 182.032 177.089 168.879 160.301 149.529 136.498 130.935 136.558 142.53 139.177 133.323 133.338 138.984 128.844 118.969 113.251 112.986 109.017 106.863 107.502 111.744 105.721 106.578 107.618 104.813 110.058 110.728 117.937 139.464 50.1069
260.51 0.00025 1070.24 1053.96 1643.07 1836.22 1685.09 1506.08 1337.37 1231.15 1090.21 989.71 987.426 1034.61 943.545 829.695 799.57 759.309 726.628 704.618 676.753 616.378 595.294 572.481 516.621 481.588 460.68 445.275 448.557 424.755 382.532 359.393 340.808 345.888 368.691 394.698 383.132 362.34 353.644 343.78 341.331 345.782 311.804 306.525 273.803 262.042 250.967 236.094 230.893 237.857 236.856 232.128 238.376 218.296 208.947 217.936 225.789 239.304 246.447 219.342 202.247 187.618 182.565 183.479 177.676 174.143 169.397 159.87 152.043 152.553 160.371 172.343 181.63 177.327 169.305 160.883 149.926 136.479 130.428 136.294 142.571 138.751 133.602 134.08 138.993 128.166 119.129 113.248 112.896 108.646 106.753 107.111 111.582 105.971 106.235 106.883 105.139 110.043 110.206 117.839 139.31 50.1471
260.5125 0.00025 1071.72 1054.16 1643.08 1833.32 1679.84 1504.59 1336.76 1230.43 1088.67 988.939 985.837 1031.84 946.739 826.023 799.643 761.13 725.355 704.781 675.976 616.01 596.498 571.684 517.488 479.35 461.159 445.853 447.862 422.302 382.481 359.741 338.244 346.168 370.317 395.414 381.763 362.732 354.154 343.582 339.371 346.47 312.952 307.081 273.466 261.58 251.893 235.846 230.596 237.733 236.698 231.86 238.722 218.754 208.498 217.439 226.015 239.156 245.798 218.092 202.007 188.227 182.518 183.138 177.206 173.996 169.463 160.467 152.8 152.522 159.833 171.931 181.283 177.373 169.736 161.551 150.316 136.48 129.973 136.005 142.599 138.317 133.873 134.864 138.932 127.476 119.277 113.335 112.759 108.339 106.645 106.73 111.388 106.237 105.918 106.144 105.473 109.983 109.697 117.745 139.162 50.1859
260.515 0.00025 1073.46 1053.84 1642.37 1830.21 1674.7 1503.59 1335.92 1230.21 1087.24 987.889 984.625 1028.59 949.49 823.001 799.264 762.743 724.179 705.006 674.947 615.886 597.784 570.844 518.584 477.307 461.571 446.38 447.006 419.828 382.37 359.94 335.912 346.512 371.777 396.137 380.417 363.107 354.568 343.647 337.325 346.965 314.236 307.587 273.374 261.027 252.549 235.72 230.419 237.732 236.487 231.6 238.924 219.246 208.151 216.95 226.164 239.026 245.09 216.911 201.671 188.875 182.476 182.828 176.711 173.857 169.447 161.09 153.645 152.496 159.247 171.53 181.034 177.219 170.142 162.31 150.712 136.495 129.576 135.693 142.612 137.878 134.133 135.677 138.818 126.788 119.388 113.524 112.57 108.101 106.533 106.361 111.167 106.508 105.627 105.411 105.806 109.878 109.203 117.655 139.022 50.2227
260.5175 0.00025 1075.45 1053 1641.04 1826.87 1669.74 1503.26 1334.81 1230.46 1085.91 986.443 983.701 1025.08 951.403 820.86 798.463 763.903 723.211 705.337 673.616 616.062 599.077 570.043 519.873 475.525 461.924 446.754 446.022 417.443 382.181 359.945 333.86 346.904 373.097 396.792 379.15 363.445 354.869 343.919 335.311 347.199 315.648 308.041 273.521 260.477 252.859 235.714 230.384 237.846 236.205 231.357 238.981 219.771 207.905 216.493 226.21 238.926 244.309 215.817 201.243 189.551 182.436 182.549 176.185 173.725 169.372 161.723 154.556 152.497 158.625 171.109 180.91 176.88 170.487 163.154 151.133 136.518 129.236 135.36 142.607 137.441 134.381 136.506 138.665 126.113 119.439 113.823 112.324 107.938 106.41 106.008 110.928 106.775 105.365 104.695 106.129 109.726 108.728 117.566 138.891 50.2571
260.52 0.00025 1077.57 1051.7 1639.05 1823.23 1664.95 1503.71 1333.34 1231.04 1084.67 984.558 982.967 1021.48 952.171 819.78 797.28 764.423 722.545 705.811 671.975 616.514 600.344 569.346 521.304 474.081 462.22 446.888 444.947 415.244 381.896 359.719 332.136 347.295 374.325 397.309 378.006 363.728 355.054 344.325 333.449 347.126 317.148 308.467 273.871 260.021 252.782 235.801 230.516 238.061 235.847 231.131 238.896 220.327 207.756 216.091 226.133 238.862 243.445 214.822 200.731 190.244 182.392 182.303 175.624 173.592 169.265 162.359 155.509 152.547 157.979 170.64 180.914 176.397 170.732 164.07 151.595 136.551 128.953 135.012 142.581 137.013 134.613 137.338 138.487 125.467 119.412 114.231 112.026 107.854 106.271 105.675 110.678 107.026 105.13 104.007 106.433 109.528 108.275 117.478 138.771 50.2889
260.5225 0.00025 1079.8 1050.05 1636.44 1819.2 1660.28 1504.86 1331.46 1231.77 1083.51 982.265 982.305 1017.97 951.633 819.846 795.771 764.205 722.188 706.473 670.062 617.162 601.581 568.817 522.811 473.056 462.445 446.715 443.805 413.324 381.503 359.25 330.788 347.61 375.516 397.628 377.025 363.934 355.136 344.784 331.833 346.748 318.66 308.912 274.367 259.732 252.327 235.935 230.833 238.359 235.414 230.92 238.678 220.91 207.705 215.761 225.925 238.829 242.496 213.933 200.148 190.942 182.341 182.089 175.027 173.447 169.153 162.991 156.473 152.662 157.327 170.108 181.021 175.831 170.837 165.041 152.111 136.598 128.724 134.652 142.526 136.603 134.828 138.158 138.296 124.865 119.29 114.74 111.683 107.849 106.112 105.363 110.426 107.251 104.92 103.357 106.709 109.286 107.843 117.391 138.662 50.3183
260.525 0.00025 1082.04 1048.09 1633.21 1814.77 1655.63 1506.46 1329.14 1232.44 1082.34 979.686 981.58 1014.65 949.796 821.013 794.036 763.253 722.076 707.357 667.97 617.884 602.765 568.52 524.324 472.532 462.59 446.193 442.608 411.768 380.979 358.553 329.855 347.762 376.729 397.696 376.231 364.043 355.145 345.219 330.519 346.115 320.078 309.434 274.939 259.657 251.552 236.052 231.344 238.721 234.919 230.714 238.339 221.512 207.748 215.512 225.588 238.814 241.461 213.15 199.512 191.633 182.282 181.903 174.399 173.274 169.062 163.618 157.422 152.856 156.69 169.507 181.193 175.248 170.772 166.049 152.685 136.671 128.544 134.286 142.439 136.219 135.024 138.953 138.104 124.323 119.069 115.332 111.308 107.916 105.932 105.076 110.179 107.442 104.734 102.758 106.946 109.003 107.435 117.304 138.565 50.3446
260.5275 0.00025 1084.23 1045.9 1629.5 1809.99 1650.93 1508.22 1326.47 1232.92 1081.06 977.028 980.671 1011.59 946.776 823.115 792.189 761.634 722.124 708.468 665.827 618.564 603.869 568.513 525.782 472.575 462.649 445.31 441.353 410.643 380.3 357.673 329.356 347.672 378.007 397.488 375.628 364.038 355.115 345.572 329.525 345.308 321.297 310.083 275.526 259.805 250.551 236.093 232.042 239.133 234.378 230.501 237.899 222.126 207.884 215.35 225.137 238.794 240.351 212.464 198.844 192.302 182.218 181.736 173.749 173.059 169.014 164.238 158.334 153.132 156.088 168.839 181.383 174.704 170.527 167.071 153.311 136.789 128.41 133.919 142.312 135.869 135.198 139.711 137.92 123.853 118.745 115.981 110.92 108.05 105.732 104.815 109.946 107.59 104.569 102.218 107.136 108.684 107.05 117.216 138.481 50.3677
260.53 0.00025 1086.32 1043.53 1625.43 1804.98 1646.08 1509.82 1323.61 1233.08 1079.55 974.501 979.48 1008.84 942.733 825.903 790.358 759.415 722.263 709.759 663.766 619.116 604.86 568.828 527.138 473.225 462.623 444.078 440.023 409.987 379.441 356.68 329.283 347.29 379.373 397.003 375.189 363.912 355.08 345.806 328.834 344.417 322.24 310.881 276.088 260.147 249.444 236.014 232.899 239.582 233.812 230.261 237.378 222.742 208.11 215.271 224.598 238.741 239.178 211.863 198.168 192.935 182.157 181.573 173.089 172.792 169.024 164.849 159.196 153.487 155.545 168.109 181.548 174.236 170.112 168.082 153.974 136.972 128.319 133.554 142.142 135.559 135.35 140.421 137.752 123.468 118.328 116.656 110.539 108.238 105.513 104.581 109.733 107.689 104.422 101.747 107.271 108.333 106.686 117.127 138.41 50.3878
260.5325 0.00025 1088.21 1040.96 1621.25 1799.86 1641.03 1510.95 1320.76 1232.83 1077.73 972.271 977.942 1006.43 937.85 829.079 788.67 756.691 722.451 711.17 661.902 619.497 605.72 569.457 528.374 474.484 462.526 442.536 438.603 409.811 378.388 355.66 329.599 346.603 380.812 396.28 374.867 363.671 355.073 345.912 328.404 343.521 322.873 311.805 276.622 260.615 248.353 235.807 233.862 240.061 233.246 229.976 236.801 223.35 208.421 215.269 224.001 238.623 237.956 211.333 197.506 193.52 182.112 181.394 172.43 172.47 169.101 165.45 159.998 153.913 155.086 167.324 181.656 173.856 169.562 169.052 154.655 137.239 128.269 133.193 141.923 135.294 135.481 141.07 137.608 123.173 117.829 117.319 110.191 108.464 105.283 104.376 109.548 107.734 104.288 101.351 107.343 107.955 106.343 117.038 138.352 50.4046
260.535 0.00025 1089.84 1038.19 1617.21 1794.76 1635.82 1511.4 1318.13 1232 1075.59 970.409 976.062 1004.34 932.331 832.312 787.253 753.581 722.649 712.662 660.311 619.681 606.463 570.337 529.495 476.319 462.373 440.738 437.085 410.08 377.14 354.698 330.245 345.639 382.275 395.382 374.591 363.335 355.113 345.906 328.177 342.679 323.212 312.794 277.158 261.113 247.382 235.504 234.861 240.561 232.706 229.626 236.191 223.942 208.813 215.335 223.384 238.411 236.695 210.864 196.877 194.046 182.102 181.18 171.778 172.098 169.243 166.038 160.74 154.395 154.732 166.492 181.684 173.553 168.928 169.946 155.338 137.605 128.265 132.839 141.654 135.076 135.593 141.651 137.493 122.974 117.271 117.929 109.901 108.713 105.048 104.2 109.395 107.721 104.165 101.035 107.347 107.555 106.019 116.949 138.306 50.4182
260.5375 0.00025 1091.14 1035.29 1613.52 1789.77 1630.54 1511.01 1315.95 1230.43 1073.28 968.892 973.919 1002.46 926.425 835.278 786.22 750.22 722.801 714.219 659.028 619.647 607.148 571.353 530.534 478.664 462.182 438.747 435.472 410.725 375.726 353.87 331.144 344.463 383.69 394.384 374.278 362.939 355.207 345.817 328.094 341.925 323.316 313.76 277.756 261.535 246.604 235.17 235.818 241.075 232.216 229.194 235.573 224.513 209.274 215.458 222.779 238.083 235.403 210.448 196.295 194.507 182.145 180.911 171.134 171.692 169.444 166.608 161.424 154.918 154.505 165.624 181.616 173.305 168.268 170.734 156.009 138.073 128.315 132.493 141.333 134.906 135.689 142.155 137.415 122.867 116.677 118.449 109.69 108.966 104.818 104.051 109.279 107.65 104.047 100.803 107.278 107.14 105.713 116.859 138.274 50.4284
260.54 0.00025 1092.02 1032.3 1610.35 1785.04 1625.32 1509.77 1314.41 1227.96 1070.94 967.645 971.685 1000.62 920.416 837.673 785.664 746.716 722.869 715.802 658.07 619.382 607.872 572.364 531.536 481.434 461.973 436.641 433.793 411.639 374.195 353.231 332.223 343.158 384.974 393.362 373.844 362.53 355.356 345.677 328.101 341.269 323.258 314.603 278.482 261.791 246.043 234.899 236.669 241.588 231.798 228.67 234.967 225.057 209.792 215.629 222.213 237.626 234.08 210.084 195.763 194.901 182.255 180.577 170.488 171.273 169.696 167.157 162.052 155.469 154.418 164.738 181.436 173.089 167.631 171.392 156.66 138.638 128.433 132.154 140.96 134.781 135.776 142.575 137.379 122.851 116.073 118.841 109.577 109.207 104.601 103.93 109.203 107.521 103.93 100.655 107.135 106.715 105.42 116.771 138.254 50.4354
260.5425 0.00025 1092.43 1029.3 1607.71 1780.7 1620.29 1507.76 1313.61 1224.5 1068.75 966.59 969.571 998.579 914.611 839.286 785.644 743.152 722.843 717.303 657.437 618.892 608.741 573.249 532.553 484.53 461.763 434.493 432.095 412.691 372.619 352.805 333.409 341.814 386.053 392.38 373.216 362.154 355.555 345.513 328.158 340.707 323.119 315.243 279.381 261.833 245.662 234.789 237.369 242.076 231.469 228.049 234.393 225.57 210.355 215.841 221.705 237.04 232.72 209.774 195.28 195.232 182.443 180.173 169.828 170.862 169.99 167.681 162.624 156.039 154.475 163.858 181.129 172.886 167.056 171.906 157.288 139.284 128.634 131.823 140.539 134.696 135.858 142.906 137.39 122.916 115.484 119.079 109.575 109.42 104.406 103.836 109.167 107.337 103.809 100.589 106.916 106.285 105.141 116.685 138.245 50.4391
260.545 0.00025 1092.39 1026.35 1605.5 1776.84 1615.51 1505.1 1313.49 1220.09 1066.82 965.719 967.781 996.083 909.315 840.033 786.16 739.581 722.74 718.572 657.113 618.236 609.826 573.927 533.62 487.857 461.561 432.373 430.444 413.736 371.076 352.59 334.651 340.512 386.87 391.474 372.345 361.857 355.795 345.34 328.245 340.224 322.961 315.637 280.457 261.681 245.371 234.931 237.908 242.511 231.242 227.334 233.865 226.048 210.95 216.088 221.264 236.333 231.315 209.527 194.839 195.506 182.715 179.708 169.14 170.475 170.32 168.179 163.139 156.622 154.674 163.016 180.674 172.686 166.561 172.276 157.891 139.986 128.938 131.503 140.072 134.644 135.942 143.146 137.454 123.053 114.933 119.143 109.69 109.593 104.24 103.772 109.172 107.105 103.681 100.601 106.623 105.854 104.871 116.601 138.246 50.4393
260.5475 0.00025 1091.83 1023.49 1603.49 1773.54 1611.03 1502.02 1313.9 1214.95 1065.15 965.08 966.478 992.896 904.79 839.945 787.12 736.071 722.555 719.452 657.072 617.524 611.133 574.386 534.745 491.326 461.376 430.353 428.916 414.635 369.648 352.559 335.916 339.319 387.391 390.655 371.211 361.667 356.064 345.168 328.346 339.806 322.817 315.79 281.655 261.416 245.052 235.386 238.311 242.863 231.117 226.534 233.395 226.485 211.566 216.366 220.891 235.525 229.853 209.348 194.435 195.729 183.068 179.196 168.413 170.113 170.687 168.649 163.591 157.218 155 162.249 180.055 172.483 166.152 172.51 158.472 140.717 129.359 131.197 139.567 134.617 136.031 143.297 137.573 123.252 114.437 119.023 109.918 109.719 104.107 103.736 109.214 106.832 103.542 100.685 106.259 105.426 104.608 116.521 138.258 50.4365
260.55 0.00025 1090.77 1020.75 1601.53 1770.71 1606.79 1498.75 1314.57 1209.34 1063.68 964.751 965.757 988.88 901.183 839.171 788.303 732.743 722.246 719.831 657.28 616.9 612.592 574.668 535.898 494.857 461.212 428.498 427.58 415.265 368.403 352.667 337.195 338.285 387.607 389.903 369.831 361.604 356.347 344.999 328.453 339.434 322.7 315.76 282.864 261.162 244.603 236.16 238.624 243.111 231.086 225.666 232.995 226.875 212.195 216.671 220.581 234.637 228.33 209.24 194.064 195.906 183.498 178.653 167.648 169.768 171.093 169.093 163.976 157.827 155.436 161.592 179.259 172.272 165.828 172.622 159.03 141.452 129.91 130.911 139.031 134.606 136.128 143.362 137.749 123.503 114.006 118.725 110.246 109.792 104.01 103.731 109.291 106.525 103.389 100.831 105.83 105.005 104.351 116.445 138.277 50.43
260.5525 0.00025 1089.18 1018.06 1599.38 1768.2 1602.78 1495.55 1315.2 1203.57 1062.32 964.806 965.622 984.068 898.475 837.937 789.415 729.716 721.774 719.634 657.695 616.534 614.085 574.861 537.021 498.386 461.074 426.864 426.489 415.534 367.385 352.862 338.488 337.446 387.534 389.179 368.249 361.676 356.622 344.834 328.567 339.096 322.606 315.63 283.953 261.046 243.971 237.195 238.905 243.25 231.128 224.755 232.673 227.211 212.83 216.998 220.323 233.693 226.747 209.198 193.731 196.033 183.999 178.097 166.857 169.42 171.541 169.515 164.29 158.45 155.959 161.079 178.289 172.04 165.589 172.626 159.569 142.17 130.592 130.654 138.469 134.603 136.234 143.349 137.982 123.797 113.646 118.261 110.656 109.813 103.951 103.756 109.395 106.196 103.221 101.029 105.341 104.594 104.096 116.375 138.305 50.4201
260.555 0.00025 1087.1 1015.38 1596.97 1765.84 1598.96 1492.7 1315.53 1197.93 1060.94 965.285 965.977 978.659 896.501 836.531 790.159 727.066 721.14 718.797 658.268 616.576 615.474 575.073 538.03 501.858 460.968 425.497 425.67 415.385 366.61 353.102 339.803 336.825 387.197 388.426 366.535 361.879 356.857 344.676 328.685 338.777 322.526 315.479 284.809 261.15 243.181 238.377 239.205 243.299 231.212 223.828 232.433 227.487 213.469 217.345 220.104 232.713 225.113 209.21 193.448 196.099 184.566 177.542 166.063 169.046 172.028 169.92 164.536 159.083 156.547 160.731 177.161 171.765 165.436 172.534 160.09 142.859 131.403 130.439 137.89 134.597 136.346 143.27 138.271 124.126 113.353 117.657 111.12 109.787 103.926 103.814 109.522 105.853 103.039 101.264 104.803 104.194 103.843 116.311 138.338 50.4071
260.5575 0.00025 1084.54 1012.61 1594.21 1763.39 1595.39 1490.42 1315.38 1192.64 1059.41 966.199 966.643 972.983 895.028 835.247 790.331 724.792 720.394 717.258 658.944 617.135 616.64 575.411 538.839 505.223 460.906 424.429 425.121 414.802 366.061 353.357 341.139 336.441 386.626 387.592 364.767 362.203 357.011 344.531 328.811 338.461 322.461 315.353 285.38 261.486 242.332 239.561 239.55 243.299 231.297 222.917 232.279 227.697 214.108 217.707 219.911 231.716 223.446 209.256 193.233 196.092 185.19 176.996 165.295 168.625 172.539 170.31 164.725 159.723 157.18 160.562 175.902 171.418 165.376 172.353 160.593 143.512 132.327 130.281 137.299 134.584 136.462 143.136 138.612 124.484 113.119 116.945 111.607 109.722 103.935 103.903 109.666 105.508 102.845 101.523 104.223 103.807 103.588 116.253 138.377 50.3913
260.56 0.00025 1081.58 1009.62 1591.04 1760.61 1592.16 1488.91 1314.66 1187.86 1057.63 967.519 967.4 967.444 893.826 834.328 789.893 722.855 719.623 714.971 659.683 618.27 617.486 575.96 539.378 508.434 460.914 423.671 424.814 413.806 365.696 353.617 342.486 336.304 385.85 386.64 363.026 362.629 357.034 344.405 328.944 338.129 322.432 315.252 285.688 261.984 241.571 240.622 239.929 243.301 231.342 222.056 232.212 227.838 214.746 218.081 219.727 230.715 221.768 209.313 193.107 195.999 185.862 176.47 164.586 168.149 173.054 170.688 164.875 160.357 157.841 160.574 174.554 170.964 165.416 172.093 161.078 144.129 133.347 130.199 136.702 134.559 136.573 142.965 139 124.865 112.933 116.164 112.082 109.626 103.973 104.022 109.82 105.169 102.643 101.789 103.612 103.434 103.332 116.202 138.42 50.3729
260.5625 0.00025 1078.24 1006.35 1587.42 1757.38 1589.4 1488.23 1313.4 1183.69 1055.49 969.168 968.046 962.405 892.742 833.907 788.961 721.211 718.872 711.963 660.455 619.991 617.957 576.783 539.594 511.433 461.026 423.224 424.711 412.449 365.454 353.888 343.818 336.425 384.886 385.547 361.392 363.13 356.884 344.301 329.085 337.756 322.473 315.134 285.816 262.523 241.042 241.485 240.293 243.356 231.308 221.276 232.231 227.91 215.383 218.464 219.54 229.72 220.106 209.358 193.088 195.817 186.56 175.973 163.961 167.622 173.54 171.046 165.009 160.975 158.518 160.757 173.162 170.374 165.555 171.764 161.545 144.708 134.441 130.209 136.103 134.519 136.675 142.77 139.43 125.266 112.78 115.35 112.512 109.511 104.038 104.169 109.979 104.844 102.439 102.045 102.981 103.074 103.073 116.158 138.465 50.3518
260.565 0.00025 1074.6 1002.84 1583.39 1753.56 1587.24 1488.38 1311.69 1180.24 1052.95 971.018 968.455 958.114 891.699 833.983 787.722 719.839 718.113 708.347 661.208 622.262 618.046 577.909 539.467 514.164 461.286 423.069 424.766 410.795 365.27 354.184 345.097 336.814 383.748 384.314 359.932 363.664 356.536 344.215 329.245 337.314 322.627 314.94 285.872 262.981 240.848 242.145 240.571 243.497 231.169 220.602 232.33 227.918 216.017 218.851 219.337 228.736 218.487 209.37 193.189 195.549 187.26 175.515 163.442 167.06 173.965 171.375 165.152 161.568 159.202 161.097 171.77 169.626 165.785 171.382 161.992 145.252 135.587 130.326 135.508 134.463 136.758 142.566 139.897 125.681 112.644 114.544 112.868 109.387 104.124 104.339 110.138 104.541 102.24 102.276 102.34 102.728 102.81 116.12 138.513 50.3287
260.5675 0.00025 1070.74 999.136 1578.97 1749.06 1585.71 1489.2 1309.74 1177.57 1050.04 972.902 968.563 954.675 890.67 834.445 786.359 718.727 717.267 704.313 661.855 625.012 617.795 579.336 539.008 516.574 461.736 423.17 424.941 408.916 365.084 354.529 346.28 337.479 382.444 382.96 358.703 364.177 355.993 344.126 329.437 336.781 322.93 314.614 285.948 263.27 241.029 242.654 240.694 243.728 230.907 220.054 232.506 227.87 216.647 219.239 219.108 227.767 216.935 209.334 193.413 195.208 187.928 175.111 163.041 166.491 174.298 171.661 165.324 162.129 159.89 161.575 170.417 168.716 166.081 170.971 162.416 145.758 136.766 130.564 134.921 134.39 136.816 142.367 140.396 126.108 112.513 113.778 113.124 109.262 104.23 104.527 110.294 104.265 102.053 102.466 101.699 102.394 102.543 116.087 138.561 50.3038
260.57 0.00025 1066.69 995.3 1574.13 1743.84 1584.75 1490.45 1307.75 1175.72 1046.86 974.633 968.349 952.073 889.671 835.128 785.031 717.87 716.234 700.094 662.288 628.134 617.306 581.009 538.247 518.633 462.416 423.48 425.199 406.878 364.853 354.937 347.326 338.417 380.978 381.523 357.741 364.596 355.285 344.001 329.683 336.141 323.397 314.131 286.09 263.364 241.548 243.097 240.618 244.023 230.518 219.642 232.758 227.778 217.273 219.622 218.849 226.816 215.471 209.238 193.756 194.814 188.529 174.771 162.763 165.946 174.515 171.887 165.536 162.654 160.58 162.167 169.134 167.651 166.407 170.559 162.815 146.223 137.959 130.93 134.353 134.301 136.845 142.183 140.921 126.541 112.374 113.079 113.263 109.145 104.352 104.727 110.443 104.02 101.886 102.603 101.067 102.072 102.274 116.06 138.609 50.2776
260.5725 0.00025 1062.56 991.417 1568.9 1737.87 1584.23 1491.88 1305.92 1174.64 1043.54 976.056 967.809 950.231 888.742 835.854 783.859 717.256 714.94 695.893 662.421 631.486 616.726 582.815 537.25 520.317 463.351 423.949 425.514 404.743 364.548 355.414 348.205 339.609 379.36 380.052 357.054 364.852 354.46 343.804 329.998 335.396 324.019 313.499 286.297 263.297 242.315 243.568 240.34 244.333 230.007 219.356 233.082 227.653 217.895 219.996 218.557 225.881 214.113 209.081 194.208 194.389 189.031 174.502 162.611 165.457 174.601 172.038 165.792 163.145 161.273 162.854 167.944 166.452 166.718 170.176 163.19 146.644 139.147 131.428 133.815 134.194 136.841 142.021 141.468 126.977 112.219 112.47 113.274 109.04 104.487 104.93 110.582 103.81 101.747 102.677 100.454 101.759 102.003 116.038 138.656 50.2503
260.575 0.00025 1058.5 987.634 1563.32 1731.21 1583.96 1493.27 1304.45 1174.23 1040.26 977.077 966.926 949.014 887.909 836.456 782.929 716.868 713.329 691.855 662.226 634.904 616.242 584.597 536.104 521.617 464.56 424.523 425.855 402.566 364.162 355.948 348.903 341.02 377.617 378.605 356.623 364.882 353.579 343.499 330.386 334.564 324.763 312.751 286.532 263.135 243.215 244.139 239.9 244.597 229.39 219.173 233.476 227.514 218.513 220.354 218.233 224.957 212.874 208.866 194.752 193.955 189.412 174.3 162.583 165.05 174.551 172.103 166.084 163.604 161.97 163.617 166.863 165.149 166.966 169.85 163.542 147.023 140.312 132.056 133.324 134.065 136.805 141.888 142.032 127.412 112.041 111.96 113.155 108.952 104.634 105.128 110.708 103.637 101.64 102.679 99.8647 101.454 101.73 116.02 138.702 50.2223
260.5775 0.00025 1054.66 984.027 1557.42 1724 1583.78 1494.49 1303.47 1174.34 1037.28 977.642 965.68 948.242 887.172 836.82 782.289 716.695 711.391 688.061 661.738 638.219 616.048 586.175 534.936 522.526 466.054 425.157 426.185 400.39 363.704 356.513 349.424 342.594 375.787 377.247 356.403 364.636 352.693 343.061 330.836 333.679 325.579 311.931 286.75 262.95 244.135 244.85 239.37 244.753 228.69 219.056 233.931 227.38 219.13 220.694 217.881 224.041 211.763 208.601 195.369 193.529 189.661 174.158 162.678 164.744 174.37 172.074 166.401 164.033 162.673 164.437 165.906 163.772 167.102 169.6 163.875 147.365 141.428 132.813 132.898 133.91 136.741 141.786 142.606 127.842 111.84 111.553 112.91 108.881 104.792 105.313 110.818 103.506 101.572 102.606 99.3058 101.156 101.457 116.006 138.745 50.1941
260.58 0.00025 1051.12 980.57 1551.19 1716.4 1583.57 1495.38 1303.03 1174.76 1034.81 977.744 964.083 947.709 886.503 836.923 781.958 716.726 709.151 684.532 661.033 641.282 616.323 587.371 533.884 523.058 467.836 425.811 426.46 398.247 363.197 357.068 349.787 344.257 373.927 376.033 356.339 364.088 351.841 342.484 331.323 332.783 326.417 311.083 286.914 262.795 244.992 245.707 238.837 244.754 227.933 218.959 234.431 227.275 219.745 221.012 217.505 223.128 210.784 208.297 196.04 193.121 189.777 174.06 162.891 164.553 174.071 171.945 166.73 164.436 163.38 165.301 165.081 162.353 167.09 169.437 164.197 147.684 142.467 133.689 132.562 133.723 136.655 141.717 143.184 128.264 111.616 111.245 112.552 108.828 104.959 105.477 110.909 103.417 101.543 102.459 98.7804 100.862 101.186 115.994 138.786 50.166
260.5825 0.00025 1048.08 977.225 1544.63 1708.67 1583.21 1495.82 1303.09 1175.41 1033.03 977.425 962.166 947.187 885.845 836.799 781.914 716.957 706.674 681.258 660.182 643.991 617.195 588.05 533.073 523.245 469.9 426.46 426.625 396.168 362.672 357.572 350.02 345.927 372.112 374.998 356.368 363.23 351.041 341.786 331.809 331.925 327.228 310.241 287.008 262.691 245.737 246.675 238.395 244.569 227.151 218.843 234.942 227.22 220.363 221.31 217.113 222.214 209.937 207.968 196.746 192.734 189.768 173.993 163.211 164.488 173.668 171.719 167.053 164.816 164.085 166.199 164.395 160.926 166.898 169.356 164.516 148.001 143.401 134.671 132.34 133.501 136.552 141.682 143.755 128.676 111.374 111.022 112.098 108.792 105.134 105.612 110.977 103.373 101.553 102.241 98.2905 100.572 100.917 115.983 138.824 50.1386
260.585 0.00025 1045.59 973.962 1537.89 1701.14 1582.54 1495.73 1303.52 1176.27 1032 976.774 960.023 946.477 885.135 836.498 782.12 717.381 704.063 678.243 659.212 646.295 618.728 588.142 532.593 523.129 472.22 427.094 426.617 394.18 362.157 357.986 350.15 347.523 370.425 374.157 356.425 362.08 350.288 340.998 332.253 331.156 327.977 309.427 287.042 262.629 246.359 247.695 238.127 244.185 226.371 218.686 235.411 227.236 220.986 221.594 216.709 221.296 209.218 207.632 197.468 192.371 189.642 173.943 163.622 164.556 173.182 171.396 167.358 165.178 164.778 167.119 163.851 159.523 166.508 169.342 164.838 148.34 144.206 135.734 132.256 133.241 136.441 141.682 144.309 129.078 111.123 110.867 111.57 108.768 105.316 105.711 111.017 103.375 101.601 101.959 97.8367 100.283 100.653 115.974 138.859 50.1121
260.5875 0.00025 1043.73 970.677 1531 1694.11 1581.42 1495.09 1304.13 1177.47 1031.68 975.918 957.785 945.447 884.251 836.074 782.53 717.981 701.451 675.514 658.116 648.188 620.915 587.644 532.483 522.773 474.754 427.725 426.364 392.312 361.673 358.279 350.197 348.98 368.947 373.502 356.452 360.668 349.564 340.154 332.613 330.521 328.636 308.647 287.043 262.58 246.873 248.688 238.102 243.613 225.611 218.489 235.778 227.334 221.619 221.873 216.298 220.375 208.615 207.311 198.182 192.037 189.41 173.903 164.102 164.759 172.633 170.985 167.629 165.528 165.451 168.05 163.446 158.18 165.915 169.364 165.173 148.723 144.87 136.847 132.334 132.948 136.328 141.719 144.833 129.467 110.873 110.758 110.993 108.754 105.505 105.77 111.024 103.424 101.682 101.622 97.4189 99.9944 100.395 115.965 138.889 50.087
260.59 0.00025 1042.56 967.36 1524.1 1687.9 1579.69 1493.94 1304.67 1179.23 1031.89 974.966 955.633 944.036 883.016 835.602 783.094 718.709 698.975 673.112 656.861 649.712 623.687 586.626 532.734 522.246 477.446 428.376 425.788 390.602 361.226 358.432 350.169 350.248 367.744 373.006 356.401 359.039 348.848 339.293 332.849 330.061 329.191 307.9 287.048 262.504 247.313 249.572 238.364 242.882 224.874 218.278 235.982 227.508 222.268 222.16 215.887 219.452 208.113 207.028 198.866 191.738 189.082 173.868 164.63 165.095 172.044 170.493 167.855 165.868 166.099 168.976 163.173 156.932 165.126 169.384 165.528 149.166 145.4 137.962 132.59 132.631 136.216 141.796 145.314 129.843 110.636 110.673 110.392 108.747 105.703 105.782 110.996 103.522 101.79 101.242 97.0365 99.7051 100.143 115.956 138.915 50.0634
260.5925 0.00025 1042.08 964.007 1517.3 1682.74 1577.26 1492.3 1304.96 1181.74 1032.41 973.999 953.757 942.203 881.258 835.166 783.744 719.501 696.762 671.075 655.419 650.926 626.918 585.217 533.295 521.625 480.229 429.076 424.818 389.096 360.806 358.441 350.065 351.307 366.861 372.637 356.233 357.242 348.113 338.443 332.933 329.803 329.638 307.182 287.089 262.37 247.711 250.277 238.928 242.042 224.149 218.089 235.981 227.73 222.937 222.472 215.483 218.529 207.694 206.81 199.499 191.486 188.661 173.835 165.185 165.551 171.438 169.929 168.032 166.192 166.728 169.876 163.02 155.813 164.16 169.358 165.911 149.674 145.823 139.032 133.032 132.309 136.109 141.917 145.739 130.204 110.425 110.586 109.79 108.742 105.908 105.745 110.928 103.666 101.918 100.832 96.6885 99.4138 99.8978 115.946 138.937 50.0417