260.5025 0.00025 0.102086 0.159476 0.260819 0.276846 0.265357 0.256919 0.260375 0.236838 0.228479 0.233673 0.22601 0.214706 0.215307 0.214229 0.210522 0.218745 0.218075 0.212712 0.214417 0.215974 0.215926 0.222877 0.217144 0.204896 0.197599 0.185699 0.181314 0.181649 0.176915 0.168077 0.164449 0.172332 0.177316 0.17014 0.163244 0.157807 0.150703 0.141311 0.135095 0.131662 0.138538 0.146462 0.146286 0.139041 0.127937 0.119457 0.117372 0.115399 0.118744 0.124664 0.125819 0.124935 0.12161 0.117282 0.116947 0.11847 0.125094 0.13343 0.134521 0.134977 0.135494 0.125855 0.115435 0.108637 0.108082 0.108555 0.109089 0.106711 0.104504 0.106015 0.110269 0.115297 0.118487 0.117113 0.112693 0.110592 0.109146 0.103355 0.095377 0.089246 0.0837639 0.076648 0.0695253 0.0663484 0.0644633 0.0629777 0.0616199 0.0615248 0.0624413 0.064323 0.0670995 0.0679367 0.0651806 0.0623172 0.0599895 0.0613418 0.0656279 0.0748619 0.0955273 0.127635
260.505 0.00025 0.10201 0.159757 0.260985 0.276074 0.264889 0.256095 0.259594 0.236183 0.227947 0.233205 0.226134 0.214567 0.215062 0.214096 0.209781 0.218606 0.218408 0.212602 0.214006 0.215825 0.216667 0.223986 0.217823 0.204858 0.196488 0.184732 0.180864 0.181593 0.176706 0.168067 0.164624 0.172007 0.176748 0.169858 0.163602 0.158153 0.150894 0.141122 0.134961 0.131481 0.138274 0.146725 0.146967 0.139397 0.127797 0.119285 0.117296 0.115222 0.118457 0.124146 0.125153 0.124372 0.121242 0.116929 0.116699 0.1184 0.124958 0.133244 0.134305 0.134963 0.135745 0.126068 0.115435 0.108441 0.107746 0.108078 0.108598 0.106274 0.104206 0.105869 0.110116 0.115065 0.118251 0.116991 0.112805 0.11077 0.109067 0.103053 0.0950869 0.0890419 0.0836569 0.0765076 0.0692779 0.0661588 0.064284 0.0628937 0.0615838 0.0615018 0.0623357 0.0641375 0.0668251 0.0676943 0.0650869 0.0622293 0.0597778 0.0611898 0.065591 0.0748103 0.0954762 0.127658
260.5075 0.00025 0.101957 0.160085 0.26108 0.27535 0.264515 0.255245 0.258721 0.235581 0.227429 0.232699 0.226209 0.214483 0.214808 0.214033 0.209103 0.218352 0.218697 0.212553 0.21366 0.215631 0.217364 0.22516 0.218479 0.20481 0.195364 0.183738 0.18037 0.181507 0.176431 0.168061 0.164856 0.171712 0.176187 0.169589 0.163952 0.15848 0.151096 0.140936 0.134857 0.131311 0.137983 0.146961 0.147591 0.139732 0.127668 0.11915 0.117249 0.115046 0.118159 0.123616 0.124493 0.123792 0.120851 0.116582 0.116461 0.118343 0.124816 0.133055 0.134107 0.134947 0.135987 0.126299 0.115474 0.108262 0.107413 0.107583 0.108106 0.105854 0.103905 0.105697 0.10994 0.114825 0.118001 0.116862 0.11293 0.110965 0.108981 0.102734 0.0947966 0.0888492 0.0835469 0.0763556 0.0690399 0.0659791 0.0641127 0.0628088 0.0615499 0.0614776 0.0622358 0.0639573 0.0665513 0.0674417 0.0649863 0.0621461 0.0595709 0.06104 0.0655552 0.0747599 0.0954252 0.127681
260.51 0.00025 0.101919 0.160446 0.261106 0.274673 0.264226 0.254366 0.257763 0.235026 0.226918 0.232139 0.226221 0.214449 0.214559 0.21401 0.208499 0.217992 0.218917 0.212565 0.213381 0.215402 0.21801 0.226377 0.219114 0.204753 0.194233 0.182726 0.179839 0.18138 0.176094 0.168055 0.165134 0.171441 0.175642 0.169331 0.164285 0.158791 0.151303 0.140753 0.134787 0.131156 0.137671 0.147175 0.148146 0.140039 0.127562 0.119054 0.117229 0.114868 0.117849 0.123075 0.123839 0.123197 0.120439 0.11624 0.116233 0.118295 0.124669 0.132865 0.133933 0.134926 0.136219 0.126545 0.115554 0.108103 0.107086 0.107074 0.107612 0.105457 0.103609 0.105497 0.109737 0.114584 0.117738 0.116722 0.113068 0.111177 0.108889 0.102401 0.0945055 0.0886687 0.0834341 0.0761913 0.0688109 0.0658072 0.0639515 0.062722 0.0615191 0.061451 0.06214 0.0637814 0.0662785 0.0671805 0.0648774 0.062066 0.0593689 0.0608922 0.0655201 0.0747106 0.0953737 0.127703
260.5125 0.00025 0.101906 0.160839 0.261076 0.274057 0.264019 0.253488 0.256734 0.234525 0.226401 0.231522 0.22616 0.214465 0.214341 0.214 0.207978 0.21755 0.219047 0.212635 0.213176 0.215149 0.218606 0.227614 0.219726 0.204687 0.193102 0.181714 0.179287 0.181204 0.175704 0.168049 0.165449 0.171197 0.175113 0.169087 0.164588 0.159085 0.151507 0.140572 0.134753 0.131015 0.137339 0.147369 0.148628 0.1403 0.127487 0.118997 0.117231 0.114686 0.11753 0.122524 0.123195 0.12259 0.120008 0.115901 0.11601 0.118252 0.124525 0.132672 0.133785 0.134899 0.136437 0.126803 0.115673 0.107966 0.106766 0.106551 0.107112 0.105085 0.103323 0.105271 0.109497 0.114345 0.117465 0.116564 0.113215 0.111406 0.108794 0.102054 0.0942145 0.0885007 0.0833188 0.0760147 0.0685901 0.0656418 0.0638031 0.0626329 0.0614924 0.0614224 0.0620481 0.0636099 0.0660082 0.0669123 0.0647597 0.0619878 0.0591732 0.0607465 0.0654852 0.0746625 0.0953221 0.127725
260.515 0.00025 0.101909 0.161254 0.260979 0.273507 0.263882 0.252638 0.255653 0.234077 0.225876 0.230846 0.22601 0.214513 0.214174 0.213974 0.207543 0.217037 0.219065 0.212752 0.213052 0.214881 0.219142 0.228842 0.220315 0.20461 0.191974 0.180714 0.178722 0.180964 0.175264 0.168038 0.165787 0.170981 0.174607 0.16886 0.164858 0.15937 0.151712 0.140398 0.134758 0.130895 0.136992 0.147546 0.149036 0.140504 0.127452 0.11898 0.117254 0.1145 0.117203 0.121964 0.122563 0.121975 0.119558 0.115562 0.115792 0.11821 0.124385 0.132473 0.13366 0.134867 0.136638 0.127065 0.11583 0.107853 0.106454 0.106019 0.106605 0.104736 0.103053 0.105021 0.109213 0.114108 0.117187 0.116384 0.113369 0.111653 0.108696 0.101698 0.0939241 0.0883465 0.0832017 0.0758255 0.0683759 0.06548 0.0636689 0.0625417 0.0614706 0.0613913 0.061959 0.0634414 0.065741 0.0666389 0.0646331 0.0619111 0.0589846 0.0606032 0.065451 0.0746164 0.0952705 0.127746
260.5175 0.00025 0.101934 0.161695 0.260853 0.273023 0.263817 0.251819 0.254541 0.233677 0.225341 0.230121 0.225782 0.214579 0.214089 0.213907 0.207201 0.216479 0.218952 0.212893 0.213009 0.214617 0.219628 0.230035 0.220882 0.204528 0.190861 0.179738 0.178158 0.180655 0.174783 0.168025 0.166134 0.17079 0.174124 0.16865 0.165086 0.159644 0.151906 0.140229 0.134796 0.130802 0.136633 0.147702 0.149373 0.140635 0.127459 0.119004 0.117291 0.114309 0.116868 0.121392 0.121941 0.121354 0.119093 0.115221 0.115577 0.118167 0.124255 0.132269 0.133564 0.134832 0.136822 0.127332 0.116026 0.107767 0.10615 0.105482 0.106091 0.10441 0.102804 0.104754 0.10888 0.113872 0.116908 0.116178 0.113523 0.111918 0.108598 0.101333 0.0936345 0.0882054 0.0830825 0.0756241 0.0681674 0.0653195 0.0635499 0.062448 0.0614536 0.0613571 0.0618717 0.063275 0.0654774 0.0663621 0.0644969 0.0618343 0.0588037 0.0604619 0.0654166 0.0745713 0.0952186 0.127767
260.52 0.00025 0.101977 0.162144 0.260701 0.272602 0.263813 0.251071 0.253416 0.233315 0.224797 0.22935 0.225463 0.21465 0.214109 0.213783 0.206942 0.215896 0.218704 0.213043 0.213043 0.214375 0.220064 0.231167 0.221427 0.204444 0.189769 0.178798 0.177603 0.18027 0.174266 0.168012 0.166477 0.170621 0.173664 0.168458 0.165266 0.159913 0.152091 0.140069 0.134864 0.130743 0.136269 0.147834 0.149649 0.140686 0.12751 0.11907 0.117341 0.114116 0.116528 0.120814 0.121334 0.120731 0.118614 0.114878 0.115364 0.118119 0.124137 0.132058 0.133492 0.134794 0.136986 0.127595 0.116256 0.107709 0.105856 0.104942 0.10557 0.104103 0.102579 0.104478 0.108496 0.113633 0.116636 0.115946 0.113672 0.112198 0.108501 0.100963 0.0933466 0.088077 0.0829625 0.0754119 0.0679639 0.0651582 0.0634473 0.0623543 0.0614421 0.0613207 0.0617858 0.0631103 0.0652177 0.0660836 0.064351 0.061756 0.0586312 0.060323 0.065382 0.074528 0.0951664 0.127787
260.5225 0.00025 0.102036 0.162604 0.260564 0.272213 0.263834 0.250403 0.252282 0.232982 0.224253 0.228547 0.225055 0.214713 0.214253 0.213595 0.206758 0.215307 0.218325 0.213186 0.213139 0.214166 0.220449 0.232217 0.221955 0.204354 0.188711 0.177902 0.177068 0.179803 0.173726 0.168001 0.166801 0.170472 0.173225 0.168284 0.165398 0.160177 0.152258 0.139924 0.134954 0.130724 0.135905 0.147935 0.149871 0.140652 0.127594 0.119182 0.117398 0.113921 0.116185 0.12023 0.120741 0.120107 0.118124 0.114532 0.115149 0.118063 0.124034 0.13184 0.133442 0.134757 0.137131 0.127854 0.116518 0.107683 0.105569 0.1044 0.105043 0.103811 0.102378 0.104197 0.108064 0.113381 0.116373 0.115687 0.11381 0.112493 0.108407 0.100591 0.0930616 0.0879607 0.082842 0.0751897 0.0677641 0.0649935 0.0633611 0.0622618 0.0614347 0.0612822 0.0617 0.0629454 0.0649618 0.0658056 0.0641958 0.0616752 0.0584676 0.0601864 0.0653472 0.0744863 0.095114 0.127807
260.525 0.00025 0.102106 0.163065 0.260449 0.271856 0.263879 0.24984 0.251165 0.232664 0.22372 0.227721 0.224565 0.214751 0.214523 0.213347 0.206642 0.214728 0.217825 0.213295 0.213291 0.214002 0.220791 0.233165 0.222461 0.204256 0.187696 0.177057 0.17656 0.179253 0.173165 0.167994 0.167088 0.170339 0.172802 0.168128 0.165479 0.160436 0.152407 0.139793 0.135061 0.130744 0.13555 0.147997 0.150047 0.140542 0.127697 0.119339 0.117458 0.113726 0.11584 0.11964 0.120161 0.119484 0.117624 0.114182 0.114932 0.117997 0.123947 0.131615 0.133411 0.134723 0.137255 0.128103 0.116808 0.10769 0.105292 0.10386 0.104513 0.10353 0.102201 0.10392 0.10759 0.11311 0.116123 0.115405 0.11393 0.112799 0.108318 0.100219 0.0927803 0.0878554 0.0827222 0.07496 0.0675673 0.0648234 0.0632903 0.0621725 0.0614316 0.0612422 0.061614 0.0627801 0.0647106 0.0655301 0.0640318 0.0615905 0.0583135 0.060052 0.0653122 0.0744466 0.0950616 0.127826
260.5275 0.00025 0.102177 0.163524 0.260402 0.271507 0.263913 0.249404 0.250076 0.232346 0.223205 0.226881 0.224011 0.214752 0.214912 0.213065 0.206584 0.21417 0.217218 0.213344 0.213492 0.213894 0.221088 0.233997 0.222947 0.204147 0.186737 0.176269 0.176089 0.178621 0.172594 0.167998 0.167335 0.170224 0.172397 0.167988 0.165519 0.160697 0.15254 0.139678 0.135183 0.130803 0.135211 0.14801 0.150177 0.140367 0.127802 0.119539 0.117518 0.113535 0.115493 0.119047 0.119592 0.118863 0.117117 0.113828 0.114708 0.117921 0.123876 0.131384 0.133397 0.134696 0.137357 0.128342 0.117121 0.107734 0.105025 0.103323 0.103984 0.103255 0.102046 0.10365 0.107084 0.112814 0.115886 0.115103 0.114028 0.113111 0.108236 0.0998517 0.092504 0.0877597 0.0826033 0.0747245 0.0673729 0.0646459 0.063233 0.0620893 0.0614311 0.0612014 0.0615267 0.0626131 0.0644633 0.0652584 0.0638592 0.0615006 0.058169 0.0599197 0.0652767 0.0744086 0.095009 0.127845
260.53 0.00025 0.102245 0.163972 0.260415 0.271152 0.263934 0.249108 0.249029 0.232039 0.222724 0.226032 0.22342 0.214708 0.2154 0.212768 0.206568 0.21364 0.216521 0.21332 0.213726 0.21385 0.221346 0.234696 0.22341 0.204032 0.185842 0.175538 0.175658 0.177909 0.172015 0.168003 0.167527 0.170115 0.172 0.167859 0.165515 0.160949 0.152655 0.139574 0.13532 0.130896 0.134902 0.14797 0.150266 0.140144 0.12789 0.119781 0.117578 0.11335 0.115145 0.118454 0.119033 0.118247 0.116606 0.11347 0.114477 0.117836 0.123818 0.131149 0.133395 0.134679 0.13744 0.128568 0.117453 0.107815 0.104767 0.102791 0.103456 0.102985 0.101909 0.103391 0.106557 0.112486 0.115659 0.114787 0.114098 0.113422 0.108162 0.0994914 0.0922339 0.0876718 0.0824855 0.0744854 0.0671798 0.0644597 0.0631875 0.0620156 0.0614325 0.0611611 0.0614377 0.0624438 0.0642199 0.0649923 0.0636792 0.0614049 0.0580348 0.0597894 0.065241 0.0743725 0.0949561 0.127863
260.5325 0.00025 0.102303 0.164405 0.260493 0.270798 0.26393 0.248962 0.248044 0.231748 0.222272 0.225177 0.222816 0.214616 0.215957 0.21249 0.206578 0.213151 0.215751 0.213208 0.213979 0.213874 0.221568 0.235256 0.223849 0.203909 0.18502 0.17487 0.175269 0.177126 0.171436 0.168014 0.167666 0.170006 0.171611 0.167743 0.165481 0.161192 0.152757 0.139477 0.135472 0.131019 0.134627 0.147873 0.150309 0.139896 0.127948 0.120051 0.117639 0.113174 0.114799 0.117865 0.118483 0.117638 0.116092 0.113106 0.114237 0.117741 0.123771 0.130911 0.133401 0.134674 0.137503 0.128781 0.117798 0.107931 0.104522 0.102264 0.102933 0.102718 0.101785 0.103143 0.106018 0.112128 0.115436 0.114463 0.11414 0.113727 0.108098 0.0991417 0.0919718 0.0875901 0.0823691 0.0742457 0.0669875 0.0642638 0.0631508 0.0619543 0.0614343 0.0611221 0.0613461 0.0622711 0.0639798 0.0647329 0.0634924 0.0613024 0.0579106 0.0596614 0.0652051 0.074338 0.0949031 0.12788
260.535 0.00025 0.102339 0.1648 0.260639 0.270447 0.263894 0.248973 0.24714 0.231495 0.221837 0.22432 0.222228 0.214479 0.216547 0.212259 0.20661 0.212715 0.214926 0.213002 0.214234 0.213969 0.221757 0.23567 0.224256 0.203779 0.184275 0.17426 0.17492 0.176282 0.170859 0.168024 0.167753 0.169886 0.171225 0.167636 0.165427 0.161421 0.15285 0.139386 0.135638 0.131167 0.134391 0.147718 0.150303 0.139641 0.127971 0.120337 0.117702 0.113009 0.114455 0.117285 0.117939 0.117037 0.115579 0.112741 0.113984 0.117637 0.123732 0.130672 0.133413 0.134684 0.137546 0.12898 0.118149 0.108082 0.104289 0.101746 0.102416 0.102454 0.101672 0.102907 0.105478 0.111742 0.115214 0.114135 0.114152 0.114018 0.108043 0.0988058 0.091719 0.0875131 0.0822544 0.0740078 0.0667953 0.0640576 0.0631198 0.0619089 0.0614359 0.0610851 0.0612511 0.0620948 0.0637428 0.0644816 0.0632998 0.0611926 0.0577967 0.0595357 0.065169 0.0743052 0.0948498 0.127896
260.5375 0.00025 0.10235 0.165156 0.260837 0.270092 0.263814 0.249136 0.246321 0.231289 0.221412 0.223474 0.221662 0.214293 0.21712 0.212092 0.206661 0.212339 0.214057 0.212686 0.214473 0.214135 0.221912 0.235945 0.224625 0.203651 0.183609 0.173706 0.174603 0.175396 0.170287 0.168025 0.167793 0.169749 0.170841 0.167535 0.165362 0.161626 0.152938 0.139297 0.135816 0.131339 0.134194 0.147509 0.150242 0.139396 0.127959 0.120614 0.117768 0.112859 0.114115 0.116714 0.117399 0.116444 0.115067 0.112372 0.11372 0.117523 0.123699 0.130434 0.133427 0.134707 0.137572 0.129165 0.118504 0.108265 0.104073 0.101235 0.101907 0.102193 0.101564 0.102684 0.104945 0.111332 0.114982 0.113808 0.114136 0.114288 0.107997 0.0984866 0.0914772 0.087439 0.0821409 0.0737748 0.0666028 0.0638408 0.0630904 0.0618811 0.0614362 0.0610511 0.0611521 0.0619146 0.0635085 0.0642392 0.0631025 0.0610748 0.0576928 0.0594124 0.0651329 0.074274 0.0947966 0.127912
260.54 0.00025 0.102324 0.165444 0.261065 0.269745 0.263696 0.249431 0.245612 0.231158 0.22099 0.222647 0.221121 0.214083 0.21765 0.21201 0.206709 0.212034 0.213162 0.212264 0.214682 0.214369 0.22203 0.236092 0.224949 0.203528 0.183025 0.173208 0.174313 0.174483 0.169723 0.16801 0.167793 0.169583 0.170457 0.167437 0.165292 0.161801 0.153024 0.139209 0.136004 0.131536 0.134034 0.147255 0.15012 0.139173 0.12792 0.120862 0.117839 0.112725 0.113782 0.116158 0.116862 0.115861 0.11456 0.112001 0.113444 0.117402 0.123671 0.130198 0.133443 0.134747 0.13758 0.129337 0.118859 0.108478 0.103876 0.100734 0.101406 0.101936 0.101457 0.102471 0.104427 0.110904 0.114738 0.113483 0.114092 0.11453 0.107959 0.0981872 0.0912486 0.0873662 0.0820284 0.073549 0.0664092 0.0636142 0.0630596 0.0618734 0.0614346 0.0610202 0.0610483 0.0617298 0.0632763 0.0640059 0.0629017 0.0609485 0.0575985 0.0592914 0.0650966 0.0742442 0.0947431 0.127928
260.5425 0.00025 0.10226 0.165659 0.261318 0.269379 0.263546 0.249828 0.245023 0.231118 0.220571 0.221871 0.220612 0.213857 0.218101 0.212037 0.206756 0.211791 0.212255 0.211734 0.214846 0.214664 0.222106 0.236117 0.225224 0.203413 0.18252 0.17277 0.174038 0.173565 0.169167 0.16797 0.167759 0.169384 0.170071 0.167341 0.165229 0.161942 0.153115 0.139123 0.136199 0.131758 0.133904 0.146969 0.14993 0.138981 0.127866 0.12106 0.11791 0.112611 0.113457 0.115618 0.116325 0.115284 0.114057 0.111627 0.113157 0.117272 0.123642 0.129962 0.133459 0.134802 0.137573 0.129497 0.119211 0.108715 0.103699 0.100243 0.100915 0.101683 0.101352 0.102266 0.103928 0.110467 0.114476 0.113163 0.114023 0.11474 0.107926 0.0979098 0.091035 0.0872942 0.0819162 0.073333 0.0662143 0.0633781 0.063024 0.0618867 0.0614313 0.060993 0.0609396 0.0615406 0.0630461 0.0637826 0.0626983 0.0608139 0.0575134 0.059173 0.0650604 0.0742155 0.0946889 0.127942
260.545 0.00025 0.102156 0.165784 0.26156 0.268994 0.26336 0.250277 0.244576 0.231178 0.220172 0.221166 0.220133 0.213631 0.218448 0.212177 0.206806 0.211616 0.211352 0.211106 0.21495 0.215008 0.222146 0.236032 0.225445 0.203312 0.182095 0.172389 0.173764 0.172655 0.168622 0.167898 0.167701 0.169147 0.169676 0.167242 0.165174 0.16204 0.153208 0.13904 0.13639 0.132004 0.133799 0.146659 0.149669 0.138817 0.12781 0.121195 0.117977 0.112521 0.113146 0.115099 0.115786 0.114715 0.113563 0.111254 0.112859 0.117132 0.12361 0.129728 0.133475 0.134871 0.137553 0.129643 0.119556 0.108972 0.103544 0.0997631 0.100433 0.101436 0.101245 0.102065 0.103454 0.110025 0.114196 0.112846 0.11393 0.114913 0.107893 0.0976567 0.090838 0.0872217 0.0818031 0.0731286 0.0660178 0.0631332 0.0629805 0.0619218 0.0614274 0.0609695 0.0608258 0.0613468 0.0628177 0.0635691 0.0624936 0.0606711 0.0574366 0.0590574 0.0650241 0.074188 0.094635 0.127955
260.5475 0.00025 0.102007 0.165809 0.261779 0.26858 0.26315 0.250737 0.244301 0.231333 0.21981 0.220549 0.219669 0.213392 0.218674 0.212423 0.206868 0.211487 0.210464 0.210391 0.214979 0.215389 0.222156 0.235846 0.225609 0.203221 0.18174 0.172063 0.17348 0.171773 0.168085 0.167788 0.16762 0.16887 0.169274 0.167143 0.165136 0.162098 0.153306 0.138967 0.136574 0.132273 0.133712 0.14633 0.14934 0.138679 0.127767 0.12126 0.118028 0.112453 0.11285 0.114604 0.115247 0.114153 0.113075 0.110877 0.112553 0.116984 0.123572 0.129494 0.13349 0.134953 0.137518 0.129779 0.119893 0.109246 0.103414 0.0992964 0.0999607 0.101193 0.101137 0.101867 0.103008 0.109583 0.113898 0.112534 0.113815 0.115047 0.107859 0.0974294 0.0906596 0.0871476 0.0816888 0.0729378 0.0658205 0.0628812 0.0629274 0.0619775 0.061423 0.060949 0.060706 0.0611481 0.0625907 0.0633654 0.0622888 0.0605203 0.0573674 0.0589447 0.0649879 0.0741612 0.0945804 0.127967
260.55 0.00025 0.101815 0.165731 0.26194 0.268122 0.262932 0.251168 0.244226 0.23157 0.219529 0.220049 0.219226 0.213142 0.218791 0.212764 0.206957 0.211393 0.209603 0.209605 0.214928 0.215793 0.222144 0.235572 0.225722 0.203147 0.181453 0.171795 0.173179 0.170933 0.16756 0.167642 0.167521 0.168554 0.168862 0.167042 0.165115 0.162113 0.153408 0.138906 0.136744 0.132557 0.133643 0.145988 0.148956 0.138552 0.127745 0.121256 0.118052 0.112412 0.112576 0.114135 0.114706 0.113598 0.112595 0.110498 0.112242 0.116828 0.123527 0.129263 0.133504 0.135047 0.137473 0.129901 0.120219 0.109533 0.103308 0.098842 0.0994974 0.100955 0.101028 0.10167 0.102593 0.109147 0.113582 0.112227 0.113679 0.115142 0.107817 0.0972286 0.0905015 0.0870721 0.0815725 0.0727615 0.0656223 0.062623 0.0628626 0.062052 0.0614195 0.0609314 0.0605808 0.060945 0.0623655 0.0631709 0.0620844 0.0603624 0.0573054 0.0588352 0.0649519 0.0741356 0.094526 0.127978
260.5525 0.00025 0.101579 0.165546 0.262031 0.267626 0.262704 0.251552 0.244365 0.231872 0.219344 0.219659 0.21879 0.212862 0.218799 0.213177 0.207098 0.21132 0.208775 0.208767 0.214786 0.216191 0.222117 0.235203 0.225791 0.203082 0.181231 0.171581 0.17285 0.17015 0.16705 0.167459 0.167406 0.168202 0.168438 0.166945 0.165112 0.162088 0.153517 0.138863 0.136894 0.132853 0.133594 0.145635 0.148529 0.138426 0.127752 0.12119 0.118032 0.112393 0.112326 0.11369 0.114162 0.113048 0.112122 0.110119 0.111928 0.11666 0.123472 0.129034 0.133516 0.135152 0.137418 0.130013 0.120532 0.10983 0.103227 0.0984029 0.0990439 0.10072 0.10092 0.10147 0.102211 0.108718 0.113252 0.111925 0.113521 0.115195 0.107762 0.0970544 0.090365 0.0869943 0.0814533 0.0726004 0.065424 0.0623599 0.0627857 0.0621428 0.0614186 0.0609156 0.0604501 0.0607374 0.0621417 0.062985 0.0618816 0.060198 0.0572488 0.0587289 0.0649157 0.0741101 0.0944712 0.127987
260.555 0.00025 0.101301 0.165261 0.262043 0.267085 0.26247 0.251859 0.244718 0.232226 0.219285 0.219381 0.218366 0.212544 0.218719 0.213636 0.207312 0.211265 0.207994 0.207893 0.214549 0.216562 0.22208 0.234748 0.225822 0.20302 0.181061 0.171414 0.172486 0.169429 0.166552 0.167239 0.167275 0.167814 0.168004 0.166852 0.165121 0.162025 0.153636 0.138842 0.137023 0.133147 0.133565 0.145269 0.148074 0.138287 0.127785 0.121076 0.117962 0.112394 0.112106 0.113274 0.113619 0.112504 0.111656 0.109741 0.111615 0.116484 0.123405 0.128808 0.133525 0.135267 0.137356 0.130116 0.120829 0.110134 0.10317 0.0979802 0.0985991 0.100486 0.100813 0.101268 0.101863 0.1083 0.112909 0.111632 0.113342 0.11521 0.107693 0.096907 0.0902519 0.0869152 0.0813317 0.072455 0.0652267 0.0620935 0.062697 0.0622465 0.0614219 0.0609006 0.0603146 0.0605259 0.0619191 0.0628069 0.0616812 0.0600284 0.0571971 0.0586268 0.0648796 0.0740853 0.0944165 0.127996
260.5575 0.00025 0.100981 0.164879 0.261961 0.266525 0.262204 0.252102 0.245278 0.232636 0.219366 0.219217 0.217959 0.212181 0.21856 0.214118 0.207607 0.211215 0.207261 0.207003 0.214213 0.21689 0.222043 0.234204 0.225826 0.20296 0.180941 0.171293 0.172083 0.168775 0.166069 0.166984 0.167128 0.167391 0.167557 0.166763 0.165139 0.161931 0.153762 0.138843 0.13713 0.133431 0.133556 0.144893 0.147604 0.138127 0.127837 0.120929 0.117834 0.112405 0.111921 0.112885 0.113076 0.111965 0.111194 0.109362 0.111303 0.116299 0.123324 0.128588 0.133528 0.135388 0.137288 0.13021 0.121108 0.110442 0.103137 0.0975757 0.0981621 0.100254 0.100708 0.101063 0.101548 0.107897 0.112555 0.111348 0.113145 0.115184 0.107603 0.096784 0.0901628 0.086835 0.081207 0.0723241 0.0650313 0.0618248 0.062597 0.0623592 0.061431 0.0608851 0.0601743 0.0603106 0.0616975 0.0626356 0.061484 0.0598546 0.0571496 0.058529 0.0648438 0.074061 0.0943621 0.128004
260.56 0.00025 0.100626 0.164412 0.26178 0.265953 0.261895 0.252295 0.246033 0.233098 0.219594 0.219168 0.217577 0.211757 0.218349 0.214592 0.207986 0.211166 0.206589 0.206121 0.213779 0.21716 0.222011 0.233579 0.22581 0.202892 0.180859 0.17121 0.171643 0.168191 0.165604 0.1667 0.166967 0.166937 0.167099 0.16668 0.165157 0.161809 0.153898 0.13887 0.137215 0.133699 0.133562 0.144515 0.147126 0.137949 0.127896 0.120762 0.117651 0.112417 0.111773 0.112525 0.112536 0.111432 0.110737 0.108987 0.110996 0.116106 0.123226 0.128375 0.133525 0.135513 0.137215 0.130296 0.121367 0.110753 0.103128 0.0971905 0.0977307 0.100021 0.100606 0.100856 0.101266 0.107513 0.112189 0.111077 0.11293 0.115118 0.107491 0.0966843 0.0900991 0.0867542 0.0810796 0.0722072 0.0648393 0.061556 0.0624873 0.0624763 0.061447 0.0608681 0.0600297 0.0600923 0.0614769 0.0624701 0.0612899 0.0596775 0.057105 0.0584361 0.0648081 0.0740374 0.0943079 0.12801
260.5625 0.00025 0.100238 0.16387 0.261519 0.265378 0.261524 0.252439 0.246941 0.233605 0.219974 0.219241 0.217221 0.211273 0.218097 0.21505 0.208429 0.211117 0.205981 0.205266 0.213243 0.217362 0.221987 0.232884 0.225781 0.202815 0.180806 0.171161 0.171168 0.167675 0.16516 0.166387 0.166788 0.166456 0.166633 0.166604 0.165171 0.161665 0.154045 0.13892 0.137279 0.133944 0.133577 0.144148 0.146648 0.137758 0.127948 0.120588 0.117416 0.112418 0.111662 0.112192 0.112004 0.110905 0.110283 0.108614 0.110694 0.115905 0.123111 0.12817 0.133518 0.135639 0.137139 0.130376 0.121604 0.111061 0.10314 0.0968273 0.0973047 0.0997879 0.100505 0.100648 0.101015 0.107151 0.111811 0.11082 0.112703 0.115013 0.107353 0.0966049 0.0900613 0.0866735 0.0809501 0.0721028 0.0646517 0.0612881 0.0623706 0.062594 0.0614716 0.060849 0.0598817 0.059872 0.0612571 0.0623093 0.0610999 0.0594989 0.0570624 0.0583481 0.0647722 0.074014 0.0942538 0.128016
260.565 0.00025 0.0998225 0.163265 0.2612 0.264805 0.261067 0.25254 0.247979 0.234165 0.220496 0.219442 0.216892 0.210722 0.217817 0.215473 0.208923 0.211073 0.205443 0.204459 0.212612 0.217487 0.22197 0.232125 0.225735 0.202728 0.18078 0.171142 0.170662 0.167226 0.164742 0.166056 0.166594 0.165947 0.166161 0.166534 0.165175 0.16151 0.154205 0.138998 0.137321 0.134161 0.133588 0.143801 0.146162 0.137558 0.127976 0.120412 0.117142 0.112399 0.111588 0.111885 0.111483 0.110386 0.10983 0.108248 0.110401 0.115697 0.122978 0.127974 0.133503 0.135763 0.137061 0.13045 0.121821 0.111366 0.103173 0.0964876 0.0968828 0.0995524 0.100407 0.100442 0.100793 0.106817 0.111422 0.110574 0.112468 0.114869 0.107187 0.0965415 0.0900494 0.0865937 0.0808193 0.072009 0.0644701 0.0610227 0.0622485 0.0627076 0.0615047 0.060826 0.0597309 0.0596509 0.061038 0.062152 0.0609138 0.0593199 0.0570211 0.0582656 0.0647364 0.0739907 0.0942 0.12802
260.5675 0.00025 0.0993843 0.162618 0.260851 0.264234 0.260523 0.252615 0.249109 0.234778 0.221149 0.219769 0.216593 0.210099 0.217516 0.215858 0.209444 0.211028 0.204983 0.203717 0.211889 0.217528 0.221958 0.231308 0.225674 0.20263 0.18077 0.171144 0.170136 0.166834 0.16435 0.165705 0.166385 0.165416 0.16569 0.166468 0.165163 0.161349 0.154377 0.139101 0.137342 0.134349 0.133587 0.143483 0.145673 0.137359 0.127968 0.120237 0.11684 0.112351 0.111543 0.111603 0.110976 0.109876 0.109377 0.107886 0.110115 0.11548 0.122827 0.127789 0.133482 0.135883 0.136984 0.13052 0.122017 0.111661 0.103226 0.0961733 0.0964634 0.0993139 0.10031 0.100239 0.100596 0.106513 0.111022 0.110337 0.112232 0.114686 0.106992 0.0964906 0.0900634 0.0865162 0.0806884 0.0719239 0.0642954 0.0607615 0.0621232 0.0628131 0.0615458 0.0607984 0.0595781 0.0594303 0.0608196 0.0619971 0.0607313 0.0591415 0.0569801 0.0581886 0.0647003 0.0739678 0.0941466 0.128024
260.57 0.00025 0.0989293 0.161944 0.260501 0.263647 0.259884 0.252678 0.250296 0.235448 0.221921 0.220228 0.216311 0.209394 0.217205 0.216206 0.209971 0.21098 0.20462 0.203048 0.211081 0.217477 0.221946 0.230453 0.225595 0.202528 0.180772 0.171165 0.169593 0.166495 0.163987 0.165342 0.166163 0.164864 0.165224 0.166402 0.165129 0.161188 0.154557 0.139229 0.137337 0.134509 0.13357 0.143203 0.145182 0.137169 0.127916 0.120059 0.116525 0.112273 0.111523 0.111344 0.110489 0.109376 0.108924 0.107532 0.109839 0.115258 0.122659 0.127614 0.133457 0.135996 0.136907 0.130583 0.122192 0.111946 0.103297 0.0958851 0.0960476 0.099071 0.100213 0.100042 0.100424 0.106243 0.110616 0.110107 0.112001 0.114468 0.106767 0.0964479 0.0901024 0.0864419 0.0805577 0.0718456 0.0641284 0.0605071 0.0619974 0.0629083 0.0615944 0.0607652 0.0594237 0.0592116 0.0606015 0.0618438 0.0605529 0.0589653 0.056939 0.0581176 0.064664 0.0739448 0.0940935 0.128026
260.5725 0.00025 0.0984647 0.161264 0.260169 0.263023 0.259148 0.252732 0.251512 0.236165 0.222791 0.220805 0.216055 0.208617 0.2169 0.216518 0.210482 0.210929 0.204356 0.202464 0.210205 0.217327 0.221929 0.229575 0.225488 0.202424 0.180775 0.171194 0.169048 0.1662 0.163654 0.164969 0.165925 0.164292 0.164772 0.166332 0.165072 0.161039 0.154748 0.139384 0.137306 0.134639 0.133531 0.142957 0.144694 0.136989 0.127821 0.119871 0.116209 0.112166 0.111518 0.111106 0.110026 0.10889 0.10847 0.107187 0.109571 0.115027 0.122475 0.12745 0.133424 0.136098 0.136834 0.130642 0.122348 0.112215 0.103384 0.0956238 0.0956354 0.0988224 0.100113 0.0998526 0.100272 0.106009 0.110208 0.109876 0.111779 0.114218 0.106511 0.096408 0.0901655 0.0863724 0.0804279 0.0717714 0.0639697 0.0602613 0.0618728 0.0629899 0.061649 0.0607263 0.0592689 0.0589965 0.0603837 0.0616905 0.060378 0.0587924 0.0568974 0.0580529 0.0646277 0.0739219 0.0940407 0.128027
260.575 0.00025 0.0979975 0.160609 0.259901 0.262365 0.25834 0.252793 0.252731 0.236928 0.223739 0.221486 0.215809 0.207759 0.216594 0.21679 0.21096 0.210878 0.204193 0.201971 0.209279 0.217078 0.221896 0.228698 0.225345 0.202323 0.180774 0.171228 0.168507 0.165943 0.163351 0.164592 0.16567 0.163706 0.164337 0.166248 0.164988 0.160908 0.154944 0.139565 0.137247 0.134744 0.13347 0.142739 0.144215 0.136818 0.127686 0.119665 0.115903 0.112036 0.111517 0.110886 0.10959 0.108417 0.108014 0.10685 0.109312 0.114791 0.122273 0.127294 0.133385 0.136186 0.136763 0.130695 0.122484 0.112467 0.103484 0.0953887 0.0952282 0.0985659 0.10001 0.099672 0.10014 0.105813 0.109803 0.10964 0.111569 0.113944 0.106223 0.0963659 0.0902503 0.0863091 0.0802998 0.0717001 0.0638198 0.0600266 0.0617515 0.0630565 0.0617075 0.0606808 0.0591143 0.0587863 0.0601661 0.0615362 0.0602068 0.0586241 0.056855 0.0579944 0.0645911 0.0738988 0.0939882 0.128026
260.5775 0.00025 0.0975392 0.160008 0.259718 0.261662 0.257469 0.252871 0.253934 0.237731 0.224749 0.22225 0.215579 0.206837 0.216291 0.217016 0.211398 0.210825 0.20413 0.201572 0.20832 0.216726 0.221834 0.227843 0.225163 0.202233 0.180764 0.171263 0.167983 0.16572 0.163081 0.164218 0.165397 0.163111 0.163929 0.166143 0.164882 0.160804 0.155144 0.139769 0.137163 0.134825 0.133394 0.142542 0.143752 0.136658 0.127518 0.119433 0.115613 0.111892 0.111507 0.110679 0.109187 0.107962 0.107558 0.106523 0.109061 0.114549 0.122058 0.127148 0.133341 0.136258 0.136697 0.130742 0.122603 0.1127 0.103595 0.0951803 0.0948275 0.0983013 0.0999011 0.0995023 0.100027 0.105653 0.10941 0.109392 0.111372 0.113652 0.105906 0.0963171 0.0903544 0.0862542 0.0801738 0.0716299 0.0636789 0.0598054 0.0616348 0.0631069 0.0617676 0.0606283 0.0589608 0.0585826 0.0599489 0.0613802 0.0600387 0.0584608 0.0568117 0.0579423 0.0645545 0.0738758 0.0939359 0.128025
260.58 0.00025 0.0970948 0.159476 0.259624 0.260918 0.256574 0.252976 0.255103 0.238557 0.225795 0.223074 0.215357 0.205871 0.215992 0.217197 0.211793 0.210778 0.204171 0.201269 0.207352 0.216281 0.221728 0.22703 0.224929 0.202153 0.180741 0.171296 0.167486 0.16552 0.162838 0.163856 0.165103 0.162508 0.163545 0.166006 0.164752 0.160731 0.155342 0.139992 0.137052 0.13488 0.133305 0.142356 0.143307 0.136508 0.127324 0.119167 0.115345 0.111743 0.111479 0.110479 0.108815 0.107527 0.107104 0.106205 0.108819 0.114302 0.121831 0.127011 0.133292 0.136312 0.136635 0.130788 0.122705 0.112912 0.103715 0.0949975 0.0944353 0.0980266 0.0997855 0.0993432 0.0999296 0.105529 0.109035 0.10913 0.111186 0.113349 0.105562 0.096256 0.0904734 0.0862088 0.08005 0.071559 0.0635467 0.0595996 0.0615242 0.0631405 0.0618269 0.0605684 0.058809 0.0583866 0.0597319 0.0612209 0.0598735 0.0583029 0.0567673 0.0578969 0.0645181 0.0738525 0.0938838 0.128021