260.5025 0.00025 -0.000777504 -0.00708465 0.0266977 0.037724 0.0438801 0.043698 0.039558 0.0403964 0.0375166 0.0365222 0.0407552 0.0302144 0.0220618 0.0207785 0.0165547 0.0126916 0.0105706 0.00488244 0.00155361 0.00222326 0.00276511 0.00432302 0.00924019 0.0122303 0.0108909 0.00799907 0.00891199 0.0123245 0.0140537 0.0159877 0.0145638 0.0165461 0.0177049 0.0167273 0.0154208 0.0155031 0.014801 0.0115211 0.00497556 0.00276766 0.000874878 0.00105169 0.00332709 0.0053812 0.0056432 0.00401325 0.00436466 0.00666931 0.00822639 0.00909104 0.00892116 0.00792287 0.00531226 0.00328423 0.00477643 0.00631829 0.00440293 0.00275217 0.00362013 0.00531713 0.00528145 0.00437549 0.00342393 0.00321666 0.00471246 0.00522573 0.00403895 0.00310905 0.00181349 -0.000283756 -0.000298222 0.00164606 0.00360062 0.00530547 0.0070733 0.00781018 0.00632186 0.00536421 0.00559527 0.00576436 0.00521765 0.00451552 0.00291109 0.00198823 0.00155635 0.00125803 0.00144065 0.00124242 0.00125215 0.00125842 0.000665665 6.76504e-05 0.000347038 0.000955286 0.000691536 -0.000308 -0.000494216 -0.000227319 0.000406775 0.000424856
260.505 0.00025 -0.000795122 -0.00699736 0.0273815 0.0372169 0.0426013 0.043534 0.039925 0.0403073 0.0375368 0.0354366 0.0404696 0.0313439 0.0222833 0.0211238 0.0167825 0.0129279 0.0109131 0.00493252 0.00180714 0.00242015 0.00242939 0.00385271 0.00894383 0.0122424 0.0110652 0.00837573 0.00885226 0.0119418 0.0133749 0.0156992 0.0145423 0.0165411 0.0177046 0.0167569 0.0151196 0.0151764 0.0146178 0.0116653 0.00543739 0.00300801 0.00110332 0.00109318 0.00335007 0.00554192 0.0058507 0.00408322 0.00425721 0.00667062 0.00832558 0.00916956 0.00896636 0.00791986 0.0052712 0.00330818 0.00470035 0.00619412 0.00428318 0.00275331 0.0036326 0.005259 0.0053019 0.00454309 0.00350386 0.00307833 0.00446951 0.0051383 0.00403864 0.00301059 0.00189887 -5.45147e-05 -0.000202321 0.001563 0.00352647 0.00517715 0.00694443 0.00790782 0.0065568 0.00550939 0.00561069 0.00572979 0.00519856 0.00449561 0.0029356 0.00193764 0.00156416 0.00133046 0.00146968 0.00130209 0.00129522 0.00133802 0.000796481 8.76389e-05 0.000331576 0.000941623 0.000704356 -0.000274488 -0.000476923 -0.00022023 0.000410734 0.000419911
260.5075 0.00025 -0.000817008 -0.00686809 0.0280557 0.0368256 0.0412574 0.0432972 0.040364 0.0401955 0.0376961 0.0345064 0.0399914 0.0323536 0.0225633 0.0213855 0.0170059 0.0132783 0.0112722 0.00494614 0.00203431 0.00263823 0.00219306 0.00348495 0.00867402 0.0121636 0.0112433 0.00882044 0.00880035 0.0115759 0.0127131 0.0153567 0.0145243 0.0165829 0.0176742 0.0167911 0.0148587 0.0148594 0.0144357 0.0116608 0.00595415 0.00328868 0.00137483 0.00117104 0.00336812 0.00565041 0.00603474 0.0041704 0.00417697 0.00667113 0.00839936 0.00923716 0.00899592 0.00790013 0.00525635 0.00338452 0.00462625 0.00602361 0.0041511 0.00279946 0.00366219 0.0051771 0.00529222 0.00470496 0.00361329 0.00298234 0.00423746 0.00502325 0.00403677 0.00288882 0.00192451 0.000169323 -5.96856e-05 0.00149084 0.00344297 0.00504295 0.00679932 0.00799021 0.00679937 0.00567315 0.00563899 0.00569948 0.005174 0.00446318 0.00295938 0.00189063 0.00157286 0.00140721 0.00149992 0.00136261 0.00133784 0.00140568 0.000929085 0.000116666 0.000320804 0.000921718 0.00071318 -0.000237384 -0.000458125 -0.000212801 0.000414627 0.000414925
260.51 0.00025 -0.000832142 -0.00672601 0.0287593 0.0365953 0.039907 0.0429696 0.0408088 0.0400613 0.0379758 0.03375 0.0393597 0.0332095 0.0229078 0.021583 0.0172179 0.0137478 0.0116613 0.00493178 0.00223301 0.00286444 0.00204664 0.00322129 0.00843661 0.0120088 0.0114216 0.00932739 0.00875835 0.0112209 0.0120846 0.0149576 0.0144942 0.0166739 0.0176241 0.016819 0.0146373 0.0145553 0.0142677 0.0115201 0.00648496 0.003625 0.00168463 0.00129171 0.00338537 0.00570544 0.00618475 0.00427276 0.0041279 0.00667431 0.00844887 0.00929146 0.00900777 0.00786243 0.00526769 0.00350705 0.00456062 0.0058064 0.00401141 0.00288541 0.00370284 0.00507901 0.00525285 0.00484688 0.00374909 0.00292994 0.004026 0.00488332 0.0040276 0.00275656 0.00189271 0.000373111 0.00012332 0.00143705 0.00335017 0.00490266 0.00663985 0.00805603 0.00704643 0.00585592 0.00568053 0.00567542 0.00514376 0.00441994 0.00298172 0.00184793 0.00158227 0.00148691 0.00153212 0.00142327 0.0013809 0.00146151 0.00106114 0.000155161 0.000315421 0.000896367 0.000718002 -0.00019678 -0.000437968 -0.000204963 0.000418958 0.000410098
260.5125 0.00025 -0.000839919 -0.0065591 0.0295022 0.0364831 0.0385815 0.0425339 0.0411995 0.0399087 0.0383341 0.0331936 0.0386112 0.033919 0.0233087 0.0217145 0.0174184 0.0143171 0.0120713 0.00490489 0.002395 0.00308972 0.00198488 0.00307385 0.00824273 0.011793 0.0115956 0.00988179 0.0087294 0.0108798 0.0115066 0.0145054 0.0144394 0.016801 0.0175665 0.0168284 0.0144553 0.0142678 0.0141239 0.011279 0.00698153 0.00402682 0.00202645 0.0014609 0.00340796 0.00571306 0.00629138 0.00438524 0.00411539 0.00667869 0.008474 0.00933277 0.0090003 0.00780929 0.0053058 0.0036691 0.00450649 0.00554274 0.00387032 0.00300601 0.0037516 0.00497347 0.0051896 0.00495636 0.00390519 0.0029221 0.00384507 0.00472462 0.00400432 0.00262356 0.00181234 0.000542412 0.00033635 0.00140875 0.00325001 0.00475571 0.00646725 0.00810362 0.00729346 0.00605698 0.00573552 0.0056589 0.00510676 0.00436761 0.00300149 0.00181031 0.00159189 0.00156856 0.0015677 0.00148433 0.00142496 0.00150673 0.00119034 0.000203036 0.000315771 0.000866234 0.000718223 -0.000153164 -0.000416307 -0.000196783 0.000423297 0.000405541
260.515 0.00025 -0.000846893 -0.00638484 0.0302921 0.036504 0.0373181 0.042006 0.0414832 0.0397519 0.0387735 0.0328483 0.0377836 0.0345006 0.0237618 0.0217973 0.0176037 0.0149671 0.0125086 0.0048731 0.0025135 0.00330967 0.00197822 0.00303701 0.00810153 0.0115358 0.0117519 0.0104656 0.00872059 0.0105523 0.010986 0.0140051 0.0143465 0.0169507 0.0175155 0.0168158 0.0143126 0.0139894 0.0140053 0.010981 0.00739484 0.00449518 0.00239991 0.00168225 0.00344473 0.00567769 0.00634637 0.00450826 0.00414496 0.00668676 0.00847768 0.00936124 0.00897 0.00774328 0.00536862 0.00386204 0.00446918 0.00523417 0.0037324 0.00315419 0.00380145 0.00486745 0.00511067 0.00502351 0.00407247 0.00295673 0.00370095 0.00455474 0.003961 0.00249321 0.00169571 0.000667427 0.000565908 0.00141191 0.00314461 0.00460244 0.0062828 0.00813276 0.00753591 0.00627634 0.00580456 0.00565186 0.00506329 0.00430711 0.00301829 0.00177844 0.00160102 0.0016511 0.00160754 0.00154554 0.00147048 0.00154256 0.00131408 0.000260501 0.000322188 0.000831804 0.000713918 -0.000106571 -0.000393335 -0.000188071 0.000427663 0.000401134
260.5175 0.00025 -0.000849458 -0.00623191 0.0311072 0.0366581 0.0361612 0.0414061 0.0415705 0.039553 0.0392578 0.032716 0.0369003 0.0349349 0.0242878 0.0218596 0.0178063 0.0156687 0.012969 0.00485702 0.00258588 0.00353411 0.00201922 0.00310769 0.00801531 0.0112494 0.011888 0.0110534 0.00874031 0.0102322 0.0105318 0.013466 0.0142124 0.0171111 0.0174825 0.0167784 0.0142048 0.0137153 0.0139074 0.0106788 0.00768609 0.00501434 0.00280315 0.00195585 0.00349877 0.0056078 0.00634404 0.00463702 0.00421809 0.00669846 0.00846159 0.00937538 0.00891548 0.00766841 0.00545172 0.00407753 0.00444792 0.00488739 0.00360387 0.0033217 0.00385022 0.00476685 0.00502533 0.00504195 0.00424236 0.00303168 0.00359804 0.00438359 0.00389494 0.00236652 0.00155588 0.000743695 0.000796819 0.00144973 0.00303775 0.00444483 0.00608713 0.00814212 0.00777048 0.006513 0.00588761 0.00565496 0.00501342 0.00424018 0.00303188 0.00175283 0.00160975 0.0017328 0.00165125 0.0016069 0.00151785 0.00157119 0.00143017 0.000327573 0.000334972 0.000793815 0.000705231 -5.75221e-05 -0.000369503 -0.000179121 0.00043212 0.000396998
260.52 0.00025 -0.00084545 -0.00610656 0.0318996 0.037015 0.035143 0.0407556 0.0414338 0.039336 0.0397828 0.0327519 0.0359894 0.0352104 0.0249138 0.0219036 0.018037 0.0163986 0.013473 0.00484975 0.00260048 0.00376959 0.00209461 0.00326655 0.00798302 0.0109549 0.0120048 0.011622 0.00879889 0.00991582 0.0101469 0.0129047 0.0140349 0.0172607 0.0174703 0.0167174 0.0141338 0.0134415 0.0138258 0.0104223 0.00784498 0.00555728 0.00323559 0.00228339 0.00357372 0.0055112 0.00627891 0.00476255 0.00433579 0.00671428 0.0084264 0.00937471 0.00883768 0.00758841 0.00555237 0.00430963 0.00444308 0.00451199 0.00348737 0.00349874 0.00389614 0.00467661 0.00493989 0.00500985 0.00440351 0.00314125 0.00353621 0.00422097 0.00380659 0.00224237 0.00140546 0.000773248 0.00101194 0.00152271 0.00293393 0.00428469 0.00588012 0.00813022 0.00799306 0.00676435 0.00598522 0.00566963 0.00495801 0.00416748 0.00304275 0.00173396 0.00161706 0.00181282 0.00170007 0.00166852 0.00156621 0.00159419 0.00153652 0.000404139 0.000354326 0.000752856 0.000691952 -6.66473e-06 -0.000344678 -0.000169439 0.000436475 0.000392957
260.5225 0.00025 -0.00083294 -0.00599408 0.0326417 0.0375436 0.0342805 0.0400753 0.0410407 0.0390859 0.0403557 0.0329688 0.0350701 0.0352914 0.0256595 0.0219373 0.0183151 0.0171291 0.014014 0.00487473 0.0025829 0.00402411 0.00219627 0.00349271 0.00800745 0.0106739 0.0121003 0.0121434 0.00890396 0.00960468 0.0098232 0.0123294 0.0138165 0.0173884 0.0174834 0.0166415 0.0140979 0.0131636 0.0137535 0.0102387 0.00788776 0.00609047 0.00369681 0.00265982 0.00367657 0.00539593 0.00615631 0.00487723 0.00449685 0.00673451 0.00837797 0.00936118 0.00873883 0.00750814 0.00566449 0.00455037 0.00445017 0.00411788 0.00338584 0.00367683 0.00393742 0.00459928 0.00486091 0.00492954 0.00454748 0.00328022 0.00351403 0.00407606 0.00369778 0.00211783 0.00125225 0.000762855 0.00119532 0.00162558 0.00283705 0.00412382 0.00566237 0.00809581 0.00820115 0.00702834 0.00609736 0.00569683 0.00489817 0.0040893 0.00305062 0.00172245 0.00162315 0.00188965 0.00175354 0.00173023 0.001615 0.00161411 0.00163179 0.000489409 0.000380416 0.000709582 0.000674448 4.58917e-05 -0.00031886 -0.000158771 0.000440811 0.000388948
260.525 0.00025 -0.000819572 -0.0058827 0.0332403 0.0382619 0.0335626 0.0393833 0.0404044 0.0387835 0.0409455 0.03334 0.034191 0.0351649 0.0265264 0.022001 0.0186533 0.0178278 0.0145964 0.00495286 0.00253662 0.00429241 0.00233245 0.00376104 0.00807626 0.0104228 0.0121775 0.012597 0.00906117 0.00930492 0.00955765 0.0117575 0.0135528 0.0174797 0.0175137 0.0165599 0.0140924 0.0128753 0.0136813 0.0101458 0.00784947 0.00657724 0.00417519 0.00308009 0.00381244 0.00526983 0.00597968 0.00497426 0.00470012 0.00676226 0.00831606 0.00933156 0.00862027 0.00743221 0.00578086 0.00479435 0.00446689 0.00371962 0.00330021 0.00384692 0.00397133 0.0045403 0.004794 0.00480754 0.00466468 0.00344096 0.00352765 0.00395551 0.00357409 0.00198996 0.00110118 0.000723268 0.00133577 0.0017507 0.00275338 0.00396468 0.00543526 0.00803753 0.00839194 0.00730142 0.00622437 0.00573745 0.00483558 0.00400615 0.00305708 0.00171876 0.00162798 0.0019618 0.00181171 0.00179233 0.00166455 0.00163292 0.00171396 0.000582415 0.000413264 0.000664727 0.000653082 9.95597e-05 -0.000292029 -0.000147428 0.000445223 0.000385537
260.5275 0.00025 -0.00079925 -0.00577705 0.0336587 0.0391418 0.0329949 0.038717 0.0395564 0.038381 0.0415074 0.0338193 0.0333946 0.0348251 0.0274362 0.0221363 0.0190547 0.0184634 0.0152117 0.00509235 0.00248324 0.00456847 0.00251089 0.00405641 0.00817124 0.0102141 0.0122413 0.0129598 0.00925951 0.00902802 0.00934231 0.0112048 0.0132491 0.0175262 0.0175535 0.0164776 0.0141143 0.0125714 0.0135985 0.0101479 0.00777826 0.00699215 0.00466111 0.00353363 0.00398999 0.00513814 0.00575843 0.00504748 0.00493969 0.00679949 0.00824531 0.00928444 0.00848643 0.00736328 0.00589746 0.00503628 0.00448697 0.00332875 0.00323112 0.0040028 0.00399654 0.00450338 0.0047405 0.00465385 0.0047485 0.0036149 0.00357098 0.00386356 0.00344372 0.00185654 0.000954149 0.000665207 0.00142726 0.00188489 0.00268712 0.00381073 0.00520113 0.00795299 0.00856318 0.00758002 0.00636626 0.00579153 0.00477203 0.00391748 0.00306161 0.00172365 0.00163237 0.00202799 0.00187463 0.00185494 0.00171401 0.00165253 0.00178298 0.000681814 0.000453042 0.000618912 0.000628475 0.00015368 -0.000264201 -0.000134974 0.000449664 0.000382303
260.53 0.00025 -0.000776353 -0.00565396 0.0338941 0.0401831 0.0325775 0.038078 0.0385597 0.037845 0.0419899 0.0343641 0.0327475 0.0342916 0.0283146 0.0224013 0.0195153 0.0190544 0.0158455 0.00531282 0.00245489 0.00483628 0.00274 0.00436347 0.0082809 0.0100533 0.0122935 0.0132201 0.00948876 0.00878076 0.00916631 0.0106841 0.0129074 0.0175198 0.0175876 0.0163974 0.0141611 0.0122593 0.0134999 0.0102402 0.00772037 0.0073211 0.00513268 0.00401101 0.00420922 0.00501051 0.0055037 0.0050892 0.00520585 0.00684597 0.00816747 0.00922135 0.0083435 0.00730423 0.00601023 0.00527059 0.00450379 0.00296286 0.00317603 0.00413577 0.00401051 0.00449076 0.00470323 0.00447963 0.00479561 0.00379314 0.00363741 0.00380241 0.00331556 0.00171873 0.000813092 0.000597452 0.00147169 0.00201405 0.0026401 0.00366554 0.00496373 0.00783969 0.00871347 0.00786066 0.00652303 0.0058587 0.00471048 0.00382408 0.00306478 0.00173742 0.00163711 0.00208701 0.00194125 0.00191762 0.00176298 0.00167443 0.00183838 0.000785941 0.000499862 0.000572606 0.000600486 0.000207805 -0.000235095 -0.000121439 0.000454182 0.000379162
260.5325 0.00025 -0.000757821 -0.00553958 0.033903 0.0413501 0.0323517 0.0374721 0.0375074 0.0371829 0.0423553 0.034878 0.0322837 0.033615 0.0290791 0.0228518 0.0200159 0.0196014 0.0164834 0.00562026 0.0024717 0.00509064 0.00302436 0.00467006 0.00838773 0.00995396 0.012342 0.0133749 0.009733 0.0085744 0.00901746 0.0102024 0.0125389 0.0174559 0.0176106 0.0163201 0.014225 0.0119364 0.0133744 0.010408 0.00771989 0.00756668 0.00556633 0.00449683 0.00447928 0.00489198 0.00522867 0.00509692 0.00548991 0.00690436 0.00808476 0.00914028 0.0081952 0.00725448 0.0061157 0.00549152 0.00451566 0.00263474 0.00313522 0.00424161 0.00400971 0.0045046 0.0046803 0.00429804 0.00480577 0.00396495 0.00371819 0.00376976 0.00319665 0.00157658 0.00067795 0.000525132 0.0014746 0.00212271 0.00261137 0.0035327 0.004728 0.00769546 0.00884001 0.00813967 0.00669489 0.00593757 0.00465294 0.00372548 0.00306627 0.00176122 0.00164357 0.00213747 0.00201141 0.00198031 0.00181128 0.00170025 0.00188077 0.000892401 0.000553824 0.000527137 0.000570311 0.00026095 -0.000205321 -0.000106897 0.000458728 0.000376392
260.535 0.00025 -0.00074474 -0.00541569 0.0337638 0.0425878 0.0323302 0.0368532 0.0364463 0.0363979 0.0425954 0.0353379 0.0320162 0.0328704 0.0296248 0.0235051 0.0205595 0.0201243 0.0171196 0.00602733 0.00255594 0.00531836 0.00337466 0.0049749 0.00848024 0.00991167 0.0123868 0.013435 0.00996778 0.00841931 0.0088885 0.009773 0.0121514 0.017326 0.0176137 0.0162452 0.0142964 0.011607 0.013217 0.0106389 0.00780256 0.00774486 0.00594703 0.00497848 0.0047917 0.0047899 0.00494284 0.00506998 0.00577777 0.00697508 0.00799797 0.0090408 0.00805009 0.00721378 0.00620918 0.00569479 0.00451781 0.00235774 0.00310741 0.00431449 0.00399349 0.00454462 0.00467136 0.0041207 0.00478329 0.00412148 0.0038069 0.00376295 0.00309284 0.00143268 0.000549177 0.000451845 0.00144551 0.00219903 0.00259763 0.00341594 0.00449886 0.00751949 0.00894087 0.00841307 0.00688075 0.00602688 0.00460342 0.00362213 0.00306526 0.00179534 0.00165287 0.00217863 0.002084 0.00204263 0.0018584 0.00173063 0.00191118 0.000999265 0.000614519 0.000483037 0.000538405 0.000312729 -0.00017439 -9.10916e-05 0.000463443 0.000373847
260.5375 0.00025 -0.000742921 -0.00530334 0.0334385 0.0438895 0.0325379 0.0362217 0.0354583 0.0355476 0.0426534 0.0356639 0.031921 0.0321243 0.0298738 0.0243412 0.0211593 0.0206328 0.0177407 0.006533 0.00272572 0.00550224 0.00380134 0.00527272 0.00854526 0.00992548 0.01242 0.0134164 0.0101787 0.0083179 0.00876948 0.00940395 0.0117595 0.017127 0.0175889 0.0161678 0.0143663 0.0112823 0.013021 0.0109208 0.00797988 0.00787776 0.00626235 0.00544135 0.00513791 0.00471453 0.0046581 0.00501122 0.00605721 0.00705863 0.00790974 0.00892476 0.00791443 0.00718055 0.00629061 0.00587394 0.00450768 0.00214013 0.00309124 0.00435155 0.00396 0.00461013 0.00467713 0.00395851 0.00473537 0.00425601 0.00389616 0.00377451 0.00300961 0.00129279 0.000427458 0.000378741 0.00139428 0.00223611 0.00259074 0.00331848 0.00428152 0.00731215 0.00901333 0.00867741 0.00707972 0.00612476 0.00456482 0.00351468 0.00306125 0.0018404 0.00166618 0.00221028 0.00215798 0.00210422 0.00190464 0.00176577 0.00193119 0.0011043 0.000681603 0.000440852 0.00050504 0.000362785 -0.000142135 -7.40224e-05 0.000468379 0.00037127
260.54 0.00025 -0.000752425 -0.0052246 0.0328936 0.0451769 0.032953 0.0355357 0.0345405 0.034678 0.0425287 0.0358488 0.0319787 0.0314644 0.0298298 0.0253054 0.0218116 0.0211275 0.0183276 0.00716433 0.00298998 0.00564248 0.00431298 0.00556771 0.00858371 0.00998771 0.0124348 0.0133339 0.0103447 0.00827465 0.00865171 0.00909551 0.0113787 0.0168601 0.0175394 0.016082 0.0144257 0.0109703 0.0127788 0.0112382 0.00824911 0.0079921 0.0065113 0.00587565 0.00550761 0.00467104 0.00438465 0.0049264 0.00631347 0.0071535 0.00782288 0.00879488 0.00779316 0.00715211 0.00635972 0.00602344 0.00448857 0.00198822 0.00308909 0.0043529 0.00390974 0.00469546 0.00469419 0.00381831 0.00467037 0.0043624 0.00397956 0.00379697 0.00294854 0.00116109 0.000313025 0.000306608 0.00132823 0.00223209 0.00258011 0.00324288 0.00408138 0.00707528 0.00905461 0.00892929 0.00729046 0.00622946 0.0045399 0.00340412 0.00305296 0.00189667 0.00168471 0.0022329 0.00223154 0.00216388 0.0019495 0.00180602 0.00194313 0.00120558 0.000754847 0.000401526 0.000471266 0.000410167 -0.000109094 -5.58004e-05 0.000473294 0.000368815
260.5425 0.00025 -0.000774306 -0.00517948 0.0321721 0.0464247 0.0335544 0.0347979 0.0336931 0.0338732 0.042198 0.0358504 0.0321213 0.0309097 0.0295198 0.0262971 0.0225534 0.021606 0.0188751 0.00793054 0.00334097 0.00571931 0.00490934 0.00586647 0.0085988 0.0100847 0.0124293 0.0132075 0.0104566 0.00827992 0.00853508 0.00884945 0.0110228 0.0165317 0.0174572 0.0159815 0.0144687 0.0106792 0.0124865 0.011585 0.00860114 0.0081122 0.00669858 0.00627048 0.00587726 0.00466184 0.00413388 0.00482449 0.00653443 0.00725693 0.00773748 0.00865267 0.00769009 0.00712522 0.00641567 0.00613898 0.00446165 0.00190461 0.00309859 0.00431692 0.00384191 0.00479512 0.00472336 0.00371062 0.00459822 0.0044355 0.00405205 0.00382329 0.00290871 0.00104358 0.000206968 0.000237668 0.00125245 0.00219081 0.00255462 0.00318787 0.00390202 0.00681355 0.00906158 0.009166 0.00751117 0.00633876 0.0045314 0.00329236 0.00303891 0.00196384 0.00170939 0.00224772 0.00230397 0.00222135 0.00199364 0.00185083 0.00194873 0.00130092 0.000833454 0.000366025 0.000437114 0.000454421 -7.48431e-05 -3.59973e-05 0.000478337 0.000366467
260.545 0.00025 -0.000807424 -0.00518061 0.0312311 0.0475738 0.0343257 0.0340568 0.0329111 0.0331566 0.041659 0.0356599 0.032309 0.0304637 0.0290208 0.027189 0.023405 0.0220697 0.0193849 0.00882201 0.00376045 0.00573659 0.00559431 0.00617528 0.00858533 0.0101991 0.012397 0.0130516 0.0105101 0.00832066 0.00841838 0.00865897 0.0106997 0.0161501 0.0173381 0.0158599 0.0144911 0.0104167 0.0121397 0.0119505 0.00902554 0.00825184 0.00683723 0.00662339 0.00623934 0.00468237 0.00391725 0.00471159 0.00671087 0.00736581 0.00765695 0.00850111 0.00760863 0.00709771 0.00645769 0.00621791 0.00443263 0.00188736 0.00312033 0.00424682 0.00375768 0.00490193 0.00476303 0.00363858 0.0045297 0.00447548 0.00410914 0.00384472 0.00288572 0.000944336 0.000109041 0.000174791 0.0011709 0.00212006 0.00250487 0.00315122 0.00374671 0.00653357 0.00903134 0.00938258 0.00773936 0.00645116 0.00454167 0.00318145 0.0030175 0.00204218 0.00174104 0.00225652 0.00237327 0.00227516 0.00203748 0.00189951 0.00195038 0.00138899 0.000916517 0.000334875 0.000403508 0.000495429 -3.93413e-05 -1.49795e-05 0.000483464 0.000364413
260.5475 0.00025 -0.000854905 -0.00523128 0.0301225 0.0485446 0.0352423 0.0333432 0.0321978 0.0325672 0.0409256 0.0352803 0.0325091 0.0301248 0.0283978 0.0278537 0.0243581 0.0225193 0.0198729 0.00983414 0.00423664 0.00569654 0.00636819 0.00650012 0.00855199 0.0103136 0.0123427 0.0128737 0.0105058 0.00838756 0.00830203 0.00851773 0.010418 0.0157302 0.0171734 0.0157103 0.0144821 0.01018 0.0117486 0.0123219 0.00950602 0.00841745 0.00694659 0.0069327 0.00658021 0.00472683 0.00374404 0.00459569 0.00683662 0.00747161 0.00758309 0.00834582 0.00755021 0.00706897 0.00648552 0.00625846 0.00440614 0.00193121 0.00315324 0.0041476 0.00365778 0.00500758 0.00481329 0.00360722 0.00447414 0.00448633 0.00414718 0.00385488 0.00287499 0.000867068 2.04618e-05 0.000119404 0.00108465 0.00202823 0.00242401 0.003127 0.00361815 0.00624318 0.00896052 0.00957513 0.00797257 0.00656504 0.0045713 0.00307531 0.0029871 0.00213021 0.00177996 0.00226157 0.00243865 0.00232406 0.00208111 0.00195187 0.00195066 0.00146883 0.0010026 0.000309068 0.000370618 0.000532315 -2.21992e-06 7.49252e-06 0.000488773 0.000362274
260.55 0.00025 -0.0009115 -0.00533336 0.0288531 0.0493145 0.0362949 0.0327053 0.0315906 0.0321039 0.0399822 0.0346742 0.0326614 0.029933 0.0277088 0.0282258 0.0253722 0.0229727 0.0203315 0.0109592 0.00475994 0.00560739 0.00721558 0.00685144 0.00849648 0.0104076 0.0122595 0.0126803 0.0104489 0.00846411 0.00819072 0.00841304 0.0101804 0.0152832 0.0169561 0.0155326 0.0144394 0.00996708 0.0113211 0.0126808 0.0100338 0.00861108 0.00704517 0.00719296 0.00689137 0.00478705 0.00361927 0.00448742 0.00690901 0.00756632 0.00751772 0.00819235 0.00751377 0.00703693 0.00649571 0.00625863 0.00439066 0.00202875 0.00319581 0.00402492 0.00354336 0.00510497 0.00487066 0.0036185 0.00443923 0.00447323 0.00416312 0.00385006 0.00286954 0.000812821 -5.58437e-05 7.29665e-05 0.000995994 0.00192245 0.0023095 0.00310645 0.00351657 0.00595133 0.00884915 0.00974043 0.00820753 0.00667997 0.00462103 0.00297724 0.00294662 0.00222717 0.00182705 0.00226573 0.00249932 0.00236674 0.00212459 0.00200648 0.00195137 0.00153976 0.00109051 0.000288855 0.000338919 0.000564809 3.6091e-05 3.14143e-05 0.000494302 0.000360147
260.5525 0.00025 -0.000979095 -0.00548139 0.0274456 0.0499005 0.0374805 0.0321366 0.0311042 0.0317581 0.038854 0.0338816 0.0327168 0.0299199 0.0270059 0.0282746 0.0264111 0.0234734 0.0207624 0.0121739 0.00532504 0.00549438 0.00811462 0.00724008 0.008422 0.0104737 0.0121567 0.0124819 0.010349 0.00853639 0.00808892 0.00833535 0.00999081 0.0148289 0.0166848 0.0153295 0.0143591 0.00978363 0.0108695 0.0130103 0.0105964 0.00882974 0.00714505 0.00740997 0.00717209 0.00485215 0.00354065 0.0043963 0.0069275 0.00764002 0.00746219 0.00804635 0.0074974 0.00700282 0.00648627 0.00622103 0.00439209 0.00216998 0.00324543 0.00388501 0.00341693 0.00518533 0.00493254 0.0036707 0.00443034 0.0044465 0.00415557 0.00382606 0.00286115 0.000780144 -0.000117512 3.45325e-05 0.000907878 0.00180823 0.00216389 0.00307995 0.00344182 0.00566602 0.00869812 0.00987411 0.00844072 0.00679521 0.00468982 0.0028908 0.00289527 0.00233144 0.00188188 0.00227104 0.00255498 0.00240201 0.00216808 0.00206261 0.00195454 0.00160146 0.00117816 0.000275191 0.000308561 0.000592426 7.59709e-05 5.69793e-05 0.000499984 0.000358096
260.555 0.00025 -0.0010508 -0.00568053 0.0259226 0.050319 0.038838 0.0316613 0.0307625 0.0315255 0.0375644 0.0329811 0.0326346 0.030083 0.0263042 0.0280093 0.0273864 0.024021 0.0211556 0.0134542 0.00593658 0.00537715 0.00903623 0.0076762 0.00833914 0.0104952 0.0120312 0.0122842 0.0102101 0.00858782 0.00800113 0.00827563 0.00984889 0.0143722 0.0163526 0.0151002 0.0142336 0.00962605 0.010412 0.0132871 0.0111883 0.00907605 0.00725914 0.00759355 0.00741977 0.0049175 0.00350411 0.00433055 0.00689798 0.00768583 0.00741677 0.0079121 0.00749777 0.00696699 0.00645619 0.00615025 0.00441418 0.00234828 0.00330027 0.00373469 0.00328418 0.00524282 0.00499659 0.00376255 0.00445208 0.00441549 0.00412336 0.00378115 0.00284328 0.000766523 -0.000161173 2.64965e-06 0.00082475 0.00168898 0.00199302 0.00303818 0.00339163 0.0053951 0.00850958 0.00997139 0.00866814 0.00691075 0.00477665 0.00282012 0.00283323 0.00244015 0.00194464 0.0022801 0.00260598 0.00242863 0.00221119 0.00211922 0.00196181 0.00165462 0.00126412 0.000268635 0.000280542 0.000615506 0.000117435 8.36697e-05 0.000506053 0.000356194
260.5575 0.00025 -0.00113153 -0.00591934 0.0242971 0.0505642 0.0402951 0.0312836 0.0305515 0.0313437 0.036143 0.0320135 0.032394 0.0303838 0.025681 0.0274825 0.0282279 0.0246194 0.0215049 0.0147666 0.0065772 0.00528137 0.00996408 0.00816917 0.00825467 0.0104684 0.0118836 0.0120892 0.0100489 0.00861159 0.00792868 0.00822522 0.00975371 0.0139291 0.0159609 0.0148479 0.0140581 0.00949661 0.00996254 0.0134948 0.0118036 0.00934838 0.00739164 0.00775067 0.00763007 0.00498394 0.00350362 0.00429482 0.00682575 0.00769417 0.00737838 0.00779439 0.00751318 0.00693043 0.00640299 0.0060508 0.00445961 0.0025549 0.00335713 0.00357927 0.00315028 0.0052737 0.00505854 0.0038883 0.00450619 0.00439129 0.00406848 0.00371497 0.00280949 0.000767196 -0.000184403 -2.47088e-05 0.000748422 0.00156777 0.00180563 0.00297293 0.00336148 0.00514338 0.00829003 0.0100294 0.00888534 0.0070266 0.00487872 0.00276863 0.00276131 0.00255037 0.00201532 0.002295 0.00265265 0.00244579 0.00225304 0.00217501 0.00197419 0.00169974 0.00134638 0.000269398 0.000254988 0.000633381 0.000160411 0.0001121 0.000512137 0.000354003
260.56 0.00025 -0.00122075 -0.00620212 0.0226338 0.0506285 0.0418003 0.0310661 0.0304683 0.0311406 0.0346219 0.031018 0.0320119 0.0307647 0.0251814 0.0267431 0.0288727 0.0252482 0.0218176 0.0160732 0.00724795 0.00523238 0.0108647 0.0087309 0.00817817 0.0103885 0.0117174 0.0118917 0.00987502 0.00860238 0.00786929 0.00817846 0.00969849 0.0135016 0.0155111 0.0145788 0.0138355 0.00939878 0.00953422 0.0136108 0.0124341 0.00964889 0.00754443 0.0078935 0.00780129 0.00504826 0.00353239 0.00429126 0.00672108 0.00766007 0.00734539 0.00769752 0.00754032 0.00689335 0.00632577 0.00592875 0.00452853 0.00278348 0.00341359 0.00342486 0.00302045 0.00527394 0.00511439 0.00404218 0.00459257 0.00438284 0.00399586 0.00362695 0.00275445 0.000776794 -0.000185542 -4.81985e-05 0.00068012 0.00144633 0.00161014 0.00287985 0.00334512 0.0049141 0.00804561 0.0100449 0.00908793 0.00714368 0.00499432 0.00273915 0.00268164 0.00265912 0.0020936 0.00231612 0.00269639 0.00245349 0.00229304 0.00222887 0.00199277 0.00173808 0.00142332 0.000277581 0.000232047 0.000646146 0.0002048 0.00014177 0.00051842 0.000352241
260.5625 0.00025 -0.00131678 -0.00648635 0.0209126 0.050506 0.0433198 0.0310003 0.0304821 0.0308461 0.0330924 0.0300619 0.0315049 0.031135 0.0248467 0.0258596 0.0292992 0.0258458 0.0221155 0.01733 0.00794121 0.00525173 0.0117087 0.00936204 0.00812832 0.010257 0.0115352 0.0116855 0.00969975 0.00855776 0.00782104 0.0081351 0.00967467 0.0130956 0.0150103 0.0142894 0.0135639 0.00933539 0.00913484 0.0136237 0.0130672 0.00998356 0.00771716 0.00803246 0.0079284 0.00511642 0.00358876 0.00431879 0.00659419 0.0075815 0.00731063 0.00762189 0.00757509 0.00685751 0.00622509 0.00579296 0.00461752 0.00302746 0.00346598 0.00327447 0.00290199 0.00524301 0.00516097 0.00421766 0.00470933 0.00439813 0.00391377 0.00351727 0.00267646 0.000789901 -0.000165379 -6.75578e-05 0.000618457 0.00132705 0.00141508 0.00275749 0.00333561 0.00470853 0.00778493 0.0100157 0.00927039 0.0072615 0.00511946 0.0027348 0.00259676 0.00276257 0.00217952 0.002345 0.00273852 0.00245167 0.00233001 0.00227955 0.0020175 0.00177095 0.00149345 0.000293651 0.000212482 0.000653839 0.000250531 0.000172871 0.000524903 0.000350438
260.565 0.00025 -0.00141642 -0.00677853 0.0191846 0.050224 0.0447966 0.0311354 0.0306256 0.0304128 0.0315885 0.0291359 0.0309099 0.0314207 0.0247191 0.0249012 0.0295011 0.0263555 0.0224177 0.0184919 0.00866527 0.00536997 0.0124798 0.0100605 0.00811305 0.0100794 0.0113411 0.011468 0.00953522 0.00848666 0.00778288 0.00809181 0.00967411 0.012716 0.0144627 0.0139776 0.0132497 0.00931094 0.00877317 0.0135252 0.013684 0.0103529 0.0079098 0.00817467 0.00800903 0.00518926 0.00366944 0.00437286 0.00645468 0.00746114 0.0072698 0.00756992 0.00761765 0.00682357 0.00610172 0.00564904 0.00472304 0.00328195 0.00351126 0.0031332 0.0028002 0.00518435 0.00519512 0.00440503 0.00485354 0.00444008 0.00382923 0.00338707 0.00257357 0.000799849 -0.000126349 -8.15127e-05 0.000561238 0.00121182 0.00122734 0.00260866 0.00332537 0.00452631 0.00751726 0.0099422 0.00942831 0.00737961 0.00525104 0.0027566 0.00251058 0.00285708 0.00227324 0.00238193 0.00278032 0.00244169 0.00236206 0.00232568 0.0020488 0.00179986 0.00155553 0.000316844 0.000196694 0.000656315 0.000297469 0.000205408 0.000531714 0.000348464
260.5675 0.00025 -0.00151351 -0.00705042 0.0174795 0.0497821 0.0461834 0.0314819 0.0308756 0.0297984 0.0301427 0.0282881 0.0303192 0.0315965 0.0247773 0.0239342 0.0294679 0.0267312 0.0227328 0.019531 0.00942044 0.00560427 0.0131657 0.0108021 0.00814943 0.00986616 0.0111426 0.0112348 0.00938552 0.00839567 0.00774874 0.00804794 0.00968528 0.0123657 0.013891 0.0136399 0.0128992 0.00932158 0.00844841 0.0133119 0.0142622 0.0107611 0.00812383 0.00832663 0.00804423 0.0052716 0.00377381 0.00444943 0.00631158 0.00729999 0.00721337 0.0075396 0.00766509 0.00678929 0.00595869 0.00550587 0.00483981 0.00354597 0.00354765 0.00300214 0.00271717 0.00510049 0.00521544 0.00459822 0.00502086 0.00451154 0.00375251 0.00323984 0.00244593 0.000801792 -7.1667e-05 -8.92933e-05 0.000505367 0.00110077 0.00105223 0.00243802 0.00330644 0.00436513 0.00724923 0.0098261 0.00955651 0.00749738 0.00538742 0.00280576 0.00242675 0.00293942 0.00237391 0.00242669 0.00282311 0.0024249 0.00238821 0.00236667 0.00208642 0.00182657 0.00160906 0.000346898 0.000185243 0.000654102 0.00034541 0.000239189 0.00053874 0.000346739