260.5025 0.00025 0.005727 0.0301606 0.0759703 0.12222 0.132959 0.139907 0.144114 0.142799 0.142655 0.140595 0.143832 0.151697 0.146112 0.146754 0.142573 0.141731 0.141978 0.139886 0.13832 0.129787 0.127712 0.126923 0.123676 0.120488 0.119965 0.11867 0.118138 0.117981 0.115936 0.113289 0.10944 0.109444 0.10983 0.111788 0.111677 0.113731 0.111596 0.111085 0.110854 0.110405 0.105171 0.104865 0.100963 0.0991889 0.0961509 0.0962573 0.0963518 0.0976285 0.0999752 0.102778 0.104431 0.105331 0.105124 0.105877 0.106171 0.106133 0.10624 0.103415 0.10125 0.0990211 0.0975174 0.0976898 0.0970703 0.0964898 0.0951903 0.0928372 0.0922015 0.0911857 0.0916878 0.0910724 0.0895863 0.0859935 0.0827146 0.0787523 0.0757173 0.0729326 0.0708296 0.0704508 0.0697297 0.068787 0.0688407 0.0681477 0.0671127 0.0654568 0.0625755 0.060378 0.0573182 0.0542637 0.0516112 0.0487724 0.0466066 0.0441817 0.0405279 0.0369192 0.0318763 0.0274062 0.021877 0.0157812 0.00941443 0.00194577
260.505 0.00025 0.0057373 0.03033 0.0761084 0.122368 0.13284 0.139484 0.143614 0.14225 0.142233 0.140487 0.143735 0.151522 0.146216 0.146263 0.142469 0.141643 0.141603 0.139535 0.137864 0.129554 0.127656 0.126743 0.123574 0.120329 0.119741 0.118665 0.117986 0.11783 0.116104 0.113545 0.10952 0.109499 0.10988 0.111623 0.111527 0.113655 0.111733 0.111204 0.110936 0.110661 0.105294 0.104888 0.101055 0.09925 0.0962621 0.0962549 0.0962479 0.0975302 0.0999354 0.102792 0.104536 0.10544 0.105096 0.105843 0.106182 0.106133 0.106185 0.103337 0.101262 0.0990202 0.0974134 0.0976937 0.0970867 0.0964859 0.0952526 0.0928693 0.0922943 0.0912559 0.0917635 0.0911902 0.0896935 0.0861973 0.0828419 0.0789237 0.0758381 0.0730548 0.0709109 0.0704546 0.0697968 0.0688173 0.0689041 0.0682062 0.0670972 0.0654271 0.0626168 0.0604087 0.0573198 0.0542898 0.0516742 0.0487824 0.0466275 0.0442413 0.0405614 0.0369265 0.0319157 0.0274291 0.0218673 0.0157898 0.00940856 0.00194644
260.5075 0.00025 0.0057449 0.0304839 0.0762295 0.122503 0.132706 0.139149 0.143085 0.141745 0.14181 0.140406 0.143681 0.151291 0.146349 0.1458 0.142369 0.141588 0.141214 0.139154 0.137371 0.129328 0.127639 0.126552 0.123488 0.120188 0.119517 0.118664 0.117832 0.117639 0.116253 0.113803 0.109625 0.109563 0.109927 0.111472 0.111368 0.113565 0.111865 0.111351 0.11099 0.110897 0.105442 0.104923 0.101168 0.0993152 0.0963935 0.0962676 0.0961671 0.0974559 0.0999073 0.102818 0.104646 0.105557 0.10508 0.105807 0.106188 0.106128 0.106123 0.103267 0.10127 0.0990279 0.0973109 0.0976843 0.0971045 0.0964684 0.0953031 0.0929015 0.0923768 0.0913211 0.0918276 0.0913174 0.0898036 0.0864065 0.0829857 0.0791057 0.0759616 0.0731774 0.0710004 0.070461 0.0698659 0.0688566 0.068965 0.0682679 0.0670801 0.0653897 0.0626591 0.0604386 0.0573211 0.0543196 0.0517377 0.0487968 0.0466463 0.0443021 0.0405969 0.036934 0.0319585 0.0274518 0.0218593 0.0157991 0.009403 0.0019471
260.51 0.00025 0.00574997 0.0306273 0.0763345 0.122612 0.132584 0.138912 0.142529 0.141285 0.141401 0.140321 0.143668 0.151014 0.146496 0.145388 0.142274 0.141564 0.140808 0.138745 0.136849 0.129114 0.127648 0.126357 0.123415 0.120068 0.119292 0.118656 0.117673 0.117421 0.116373 0.114058 0.109754 0.109635 0.109971 0.111335 0.111198 0.113461 0.111981 0.11152 0.111027 0.111104 0.105619 0.104976 0.101309 0.0993872 0.0965445 0.0962937 0.0961052 0.0974026 0.0998913 0.102855 0.104759 0.105679 0.105076 0.105768 0.106186 0.106119 0.106053 0.103208 0.101278 0.0990459 0.0972151 0.0976618 0.0971236 0.0964411 0.0953434 0.0929365 0.0924504 0.0913832 0.0918781 0.0914503 0.0899206 0.0866188 0.0831463 0.0792997 0.0760909 0.0732998 0.0710975 0.0704705 0.0699363 0.0689055 0.0690234 0.068332 0.0670631 0.0653454 0.0627015 0.0604694 0.0573238 0.0543534 0.0518015 0.0488166 0.0466622 0.0443635 0.0406339 0.0369422 0.0320045 0.0274739 0.0218533 0.0158085 0.00939797 0.00194771
260.5125 0.00025 0.00575353 0.0307584 0.0764132 0.122691 0.132471 0.138789 0.141942 0.140885 0.141007 0.140203 0.143697 0.150707 0.146637 0.14503 0.142171 0.141554 0.140389 0.138314 0.136297 0.128918 0.12767 0.126168 0.123358 0.119974 0.119075 0.118634 0.117513 0.117188 0.116458 0.114304 0.109904 0.109724 0.110015 0.111214 0.111017 0.113352 0.112071 0.111712 0.111061 0.111276 0.105816 0.105041 0.101473 0.099464 0.0967112 0.096336 0.0960662 0.097374 0.099888 0.102906 0.104872 0.105807 0.105086 0.105731 0.106178 0.106102 0.105974 0.103156 0.101285 0.0990734 0.09713 0.097627 0.0971428 0.096406 0.0953732 0.092973 0.0925124 0.0914407 0.0919136 0.0915832 0.090046 0.086831 0.0833235 0.0795073 0.0762288 0.0734212 0.0712016 0.0704839 0.0700072 0.068963 0.069079 0.0683975 0.0670479 0.0652951 0.0627413 0.0605019 0.0573287 0.0543915 0.0518646 0.0488419 0.0466758 0.0444251 0.0406729 0.0369512 0.0320535 0.027495 0.0218494 0.0158181 0.00939342 0.00194832
260.515 0.00025 0.00575723 0.0308704 0.0764662 0.122729 0.132384 0.138778 0.14133 0.140541 0.140651 0.140038 0.14376 0.150375 0.146759 0.144745 0.14207 0.141547 0.139966 0.137872 0.135725 0.128757 0.127697 0.125992 0.123318 0.119909 0.118869 0.118593 0.117349 0.116952 0.116503 0.114536 0.11007 0.109829 0.110058 0.111107 0.110829 0.113244 0.112134 0.111917 0.1111 0.111405 0.10603 0.10512 0.101662 0.0995531 0.0968921 0.0963986 0.0960557 0.097368 0.0998951 0.102969 0.104983 0.105939 0.105111 0.105694 0.106164 0.106079 0.105887 0.10311 0.10129 0.099109 0.0970558 0.0975795 0.0971598 0.0963649 0.0953934 0.0930129 0.0925634 0.0914966 0.0919361 0.0917112 0.0901827 0.0870419 0.0835174 0.0797291 0.0763784 0.0735428 0.0713119 0.0705013 0.0700779 0.0690299 0.0691323 0.0684637 0.0670361 0.0652394 0.062777 0.0605373 0.0573358 0.0544334 0.0519266 0.0488732 0.0466876 0.0444861 0.040714 0.036961 0.0321046 0.0275151 0.021848 0.0158276 0.0093894 0.001949
260.5175 0.00025 0.0057618 0.0309767 0.0765101 0.122714 0.132333 0.138872 0.1407 0.14025 0.140341 0.139813 0.143854 0.150038 0.146851 0.144538 0.141978 0.141528 0.139549 0.137422 0.135133 0.128627 0.127725 0.125838 0.123293 0.119875 0.118676 0.118525 0.117187 0.116719 0.116504 0.114746 0.110249 0.109951 0.110105 0.111015 0.11064 0.113144 0.112158 0.112119 0.111157 0.111493 0.106252 0.105209 0.101873 0.0996582 0.0970873 0.096485 0.0960731 0.0973822 0.0999135 0.103043 0.105093 0.106078 0.10515 0.105662 0.10614 0.106047 0.105794 0.103073 0.101293 0.0991498 0.0969945 0.0975196 0.0971732 0.0963207 0.0954071 0.0930561 0.0926019 0.0915483 0.0919448 0.0918271 0.0903316 0.0872515 0.0837267 0.0799641 0.0765423 0.0736651 0.071427 0.0705225 0.0701477 0.0691047 0.0691824 0.068529 0.0670286 0.0651797 0.0628062 0.0605751 0.0573456 0.0544792 0.051987 0.0489112 0.0466983 0.0445459 0.0407567 0.036972 0.0321575 0.0275344 0.0218493 0.0158375 0.0093864 0.00194974
260.52 0.00025 0.00576843 0.0310668 0.0765199 0.122641 0.13232 0.139069 0.140074 0.140016 0.140079 0.139511 0.143963 0.149718 0.146905 0.144405 0.141894 0.141479 0.139146 0.13697 0.134528 0.128528 0.127751 0.125706 0.123277 0.119875 0.118497 0.118427 0.117027 0.116498 0.116461 0.114936 0.110443 0.110083 0.11016 0.110931 0.110449 0.113056 0.112144 0.112305 0.111236 0.111541 0.106471 0.10531 0.102098 0.0997809 0.0972922 0.0965931 0.0961192 0.097415 0.0999418 0.103128 0.105202 0.106226 0.105204 0.105634 0.106106 0.106007 0.105695 0.103041 0.101296 0.099196 0.0969476 0.0974508 0.0971809 0.0962741 0.0954152 0.0931038 0.0926289 0.0915966 0.0919427 0.091927 0.0904924 0.08746 0.0839492 0.080212 0.0767242 0.0737903 0.0715466 0.0705483 0.0702165 0.0691877 0.0692301 0.0685934 0.0670267 0.0651177 0.062827 0.0606164 0.0573592 0.0545289 0.052045 0.048956 0.0467083 0.0446037 0.0408011 0.0369843 0.0322112 0.0275521 0.0218532 0.0158473 0.00938439 0.00195043
260.5225 0.00025 0.00577843 0.0311516 0.0765007 0.12251 0.132339 0.139356 0.139459 0.139831 0.139867 0.13914 0.144067 0.149426 0.146903 0.144335 0.141817 0.141372 0.138747 0.136525 0.133919 0.128449 0.127785 0.125599 0.12327 0.11991 0.11833 0.118296 0.116871 0.116296 0.116379 0.115102 0.110649 0.110225 0.110229 0.110857 0.110259 0.112979 0.112094 0.112465 0.111338 0.11156 0.106681 0.105426 0.102333 0.0999295 0.0975058 0.0967248 0.0961924 0.0974647 0.0999792 0.10322 0.105307 0.106377 0.105271 0.105612 0.106061 0.105956 0.105593 0.103016 0.101297 0.0992443 0.0969143 0.0973744 0.0971825 0.0962258 0.0954175 0.0931549 0.0926432 0.0916391 0.0919319 0.0920051 0.0906611 0.0876681 0.0841838 0.0804739 0.0769261 0.0739209 0.0716692 0.0705781 0.0702828 0.0692776 0.0692758 0.0686558 0.0670309 0.0650549 0.0628384 0.06066 0.0573767 0.0545824 0.0521005 0.0490078 0.0467184 0.0446587 0.0408468 0.0369982 0.0322656 0.0275686 0.0218597 0.0158566 0.00938291 0.00195105
260.525 0.00025 0.00579268 0.031213 0.076436 0.122321 0.132368 0.139703 0.138865 0.139689 0.139691 0.138726 0.144148 0.149183 0.146851 0.144321 0.14176 0.141214 0.138363 0.136095 0.133324 0.128375 0.127832 0.125525 0.12328 0.119981 0.118177 0.118129 0.116721 0.116121 0.116263 0.115245 0.110861 0.110363 0.110319 0.110792 0.110075 0.112916 0.112016 0.112596 0.111462 0.111555 0.106871 0.105556 0.102567 0.100106 0.097729 0.0968816 0.0962937 0.0975326 0.10003 0.103322 0.105412 0.106533 0.10535 0.105599 0.106008 0.105897 0.105488 0.102995 0.101296 0.0992947 0.0968939 0.097293 0.0971758 0.0961768 0.0954157 0.0932107 0.0926463 0.0916741 0.0919136 0.0920579 0.0908343 0.0878775 0.0844277 0.0807485 0.0771484 0.0740602 0.0717946 0.070612 0.0703467 0.0693738 0.0693203 0.0687157 0.0670407 0.0649934 0.0628395 0.0607053 0.0573986 0.0546392 0.0521531 0.0490668 0.0467298 0.0447103 0.0408938 0.0370139 0.0323201 0.0275841 0.0218691 0.0158659 0.00938231 0.00195174
260.5275 0.00025 0.00580923 0.0312482 0.0763441 0.122086 0.132391 0.1401 0.138286 0.139574 0.139523 0.138287 0.14417 0.149009 0.14675 0.144352 0.141718 0.141001 0.137983 0.135678 0.132758 0.128285 0.127887 0.125489 0.123304 0.120084 0.118042 0.117929 0.116571 0.11597 0.116118 0.115367 0.111073 0.110487 0.110428 0.110734 0.109906 0.112863 0.111913 0.112685 0.1116 0.111536 0.107036 0.105701 0.10279 0.100312 0.0979641 0.0970661 0.0964223 0.0976203 0.100091 0.103426 0.105516 0.106693 0.105443 0.105596 0.105945 0.105828 0.10538 0.102979 0.101293 0.0993454 0.0968861 0.097208 0.0971598 0.0961282 0.0954097 0.0932706 0.0926406 0.0916997 0.0918918 0.0920842 0.0910058 0.0880893 0.0846785 0.0810363 0.0773917 0.0742122 0.0719234 0.0706511 0.070408 0.0694764 0.0693643 0.0687729 0.0670565 0.0649357 0.0628302 0.0607508 0.0574257 0.054699 0.0522024 0.0491329 0.0467435 0.0447585 0.0409419 0.0370312 0.0323736 0.0275984 0.0218811 0.0158749 0.00938271 0.00195233
260.53 0.00025 0.00582613 0.031257 0.0762246 0.121802 0.132378 0.140505 0.137739 0.139473 0.139342 0.137858 0.144105 0.148902 0.146619 0.144398 0.141688 0.140732 0.137607 0.135279 0.132246 0.128174 0.127952 0.125494 0.123343 0.120212 0.117923 0.117695 0.116413 0.11584 0.115953 0.115481 0.111287 0.110597 0.110564 0.110683 0.109757 0.112824 0.111801 0.112733 0.111747 0.111505 0.107168 0.105856 0.102997 0.100543 0.0982117 0.0972789 0.09658 0.0977317 0.100166 0.10353 0.105617 0.106855 0.105547 0.105604 0.105876 0.105752 0.105271 0.102967 0.101289 0.0993938 0.09689 0.0971204 0.0971332 0.0960803 0.0953997 0.0933354 0.0926285 0.091716 0.0918683 0.0920833 0.0911694 0.0883021 0.0849347 0.081337 0.0776549 0.0743798 0.0720559 0.0706946 0.0704654 0.0695836 0.0694073 0.068827 0.0670775 0.0648826 0.0628103 0.0607951 0.0574586 0.0547616 0.0522483 0.0492054 0.0467599 0.0448024 0.0409905 0.0370503 0.032426 0.0276119 0.0218959 0.0158839 0.00938393 0.001953
260.5325 0.00025 0.00584402 0.0312307 0.076072 0.121471 0.132291 0.140891 0.137236 0.139407 0.139145 0.137475 0.143923 0.148852 0.14647 0.144461 0.141664 0.140427 0.137233 0.134891 0.131793 0.128035 0.128018 0.12554 0.123406 0.120369 0.117823 0.117431 0.116248 0.115731 0.115775 0.115585 0.11149 0.110684 0.110722 0.110641 0.109632 0.112791 0.111685 0.112731 0.111892 0.11147 0.10727 0.106017 0.103187 0.100786 0.098476 0.0975213 0.0967629 0.0978685 0.100255 0.103632 0.105717 0.107017 0.105661 0.105621 0.105803 0.105669 0.105158 0.102957 0.101286 0.0994399 0.0969055 0.0970329 0.0970952 0.0960342 0.0953866 0.0934028 0.092613 0.0917216 0.0918435 0.0920554 0.0913196 0.0885161 0.0851948 0.0816501 0.0779372 0.0745673 0.0721934 0.0707425 0.0705195 0.0696944 0.0694497 0.0688769 0.0671024 0.0648361 0.0627812 0.0608359 0.0574974 0.0548258 0.0522912 0.0492841 0.0467805 0.0448417 0.0410395 0.0370713 0.0324766 0.0276249 0.0219133 0.015893 0.0093861 0.00195368
260.535 0.00025 0.00586231 0.0311651 0.0759006 0.121103 0.13214 0.141216 0.136771 0.139354 0.138918 0.137156 0.143623 0.14884 0.146317 0.144522 0.141644 0.140102 0.136858 0.134523 0.131406 0.127872 0.12809 0.125623 0.123491 0.120546 0.117741 0.117141 0.116077 0.115641 0.115593 0.115683 0.111682 0.110753 0.110901 0.110614 0.109531 0.112761 0.111574 0.112683 0.112025 0.111434 0.107352 0.106179 0.103363 0.101027 0.0987593 0.0977942 0.0969662 0.09803 0.100359 0.10373 0.105816 0.107176 0.105782 0.105647 0.105729 0.105579 0.105045 0.102951 0.101285 0.0994807 0.0969322 0.0969459 0.0970439 0.0959892 0.0953706 0.0934731 0.0925969 0.0917171 0.0918185 0.0920025 0.0914487 0.0887296 0.0854578 0.0819734 0.0782358 0.0747764 0.0723369 0.0707943 0.0705697 0.0698087 0.0694926 0.0689236 0.0671316 0.0647979 0.0627439 0.0608713 0.0575428 0.0548916 0.0523315 0.0493688 0.0468066 0.0448769 0.0410886 0.0370944 0.0325249 0.0276373 0.021933 0.0159021 0.00938912 0.00195443
260.5375 0.00025 0.00588228 0.0310684 0.0757036 0.120701 0.131922 0.141463 0.136362 0.139311 0.138669 0.136905 0.14321 0.148839 0.146176 0.144573 0.141619 0.139781 0.136478 0.134176 0.131069 0.127689 0.128163 0.125738 0.123602 0.120745 0.117679 0.116836 0.115893 0.115557 0.115414 0.11578 0.111861 0.110808 0.111094 0.110607 0.109455 0.112728 0.11148 0.112596 0.112134 0.111401 0.107423 0.106329 0.103537 0.101254 0.0990639 0.0981024 0.0971942 0.0982199 0.10048 0.103825 0.105919 0.107334 0.105911 0.10568 0.105655 0.105483 0.104928 0.102945 0.101285 0.0995157 0.0969673 0.0968593 0.0969779 0.0959463 0.0953517 0.0935445 0.092583 0.0917023 0.0917943 0.0919276 0.0915511 0.0889402 0.0857232 0.0823058 0.0785499 0.0750102 0.0724896 0.070852 0.0706172 0.069925 0.0695358 0.0689672 0.0671643 0.0647684 0.0627003 0.060899 0.0575942 0.0549579 0.0523694 0.0494585 0.0468387 0.0449075 0.0411371 0.0371194 0.0325705 0.027649 0.0219546 0.0159115 0.00939291 0.00195528
260.54 0.00025 0.00590299 0.0309429 0.0754944 0.120284 0.131654 0.141593 0.136024 0.139248 0.138404 0.13672 0.14272 0.14882 0.14606 0.144607 0.141581 0.139471 0.136104 0.133855 0.13078 0.127497 0.128236 0.125874 0.123737 0.120958 0.117636 0.116526 0.115699 0.115478 0.115253 0.115875 0.112024 0.11085 0.111291 0.110624 0.109403 0.112686 0.111404 0.112474 0.11221 0.11137 0.10749 0.10646 0.103716 0.101456 0.0993814 0.0984463 0.0974427 0.0984385 0.100615 0.103917 0.106025 0.107488 0.10605 0.105719 0.105583 0.105387 0.104815 0.102941 0.101286 0.099546 0.0970117 0.0967765 0.0968984 0.0959071 0.0953299 0.0936143 0.0925713 0.0916769 0.0917693 0.0918345 0.0916223 0.0891451 0.0859895 0.0826448 0.0788783 0.0752688 0.072654 0.070915 0.0706613 0.070042 0.0695794 0.0690076 0.0671991 0.0647482 0.062652 0.0609175 0.0576519 0.0550249 0.0524057 0.0495522 0.0468777 0.0449336 0.0411847 0.0371463 0.0326128 0.0276606 0.0219783 0.0159213 0.00939753 0.00195623
260.5425 0.00025 0.00592377 0.0307924 0.0752722 0.119844 0.131345 0.141599 0.135757 0.13915 0.13813 0.136591 0.142203 0.148756 0.145963 0.144615 0.141525 0.13918 0.135744 0.133554 0.130527 0.127304 0.128321 0.126022 0.123894 0.121181 0.11761 0.116218 0.115497 0.115396 0.115115 0.115964 0.112169 0.110888 0.111487 0.11067 0.109374 0.112633 0.111353 0.112322 0.112242 0.111339 0.107556 0.106559 0.103906 0.101637 0.0996991 0.0988232 0.0977129 0.0986849 0.100766 0.104009 0.106134 0.107637 0.106201 0.105763 0.105517 0.105289 0.104701 0.102935 0.101292 0.0995722 0.0970626 0.0966961 0.0968019 0.0958699 0.0953067 0.0936825 0.0925644 0.0916444 0.091745 0.0917292 0.0916592 0.0893402 0.0862549 0.082988 0.0792204 0.0755525 0.072833 0.0709846 0.0707026 0.0701586 0.0696239 0.0690456 0.0672361 0.0647366 0.0626003 0.0609252 0.0577143 0.0550919 0.0524412 0.0496496 0.0469246 0.0449564 0.0412311 0.0371753 0.0326519 0.0276717 0.0220038 0.0159321 0.00940279 0.00195717
260.545 0.00025 0.00594461 0.03063 0.0750436 0.119393 0.131006 0.141466 0.135561 0.139006 0.137864 0.136508 0.141705 0.148627 0.145894 0.144603 0.141453 0.138908 0.135407 0.133258 0.130302 0.127124 0.128414 0.126176 0.124077 0.121408 0.117603 0.115928 0.11529 0.115303 0.115004 0.116038 0.112302 0.110925 0.111668 0.110742 0.10937 0.112573 0.111327 0.112154 0.112225 0.11131 0.107625 0.106626 0.104106 0.101802 0.0999998 0.0992312 0.0980097 0.0989632 0.100933 0.1041 0.106245 0.10778 0.10636 0.105809 0.105458 0.105192 0.104588 0.10293 0.1013 0.0995959 0.0971199 0.096621 0.0966912 0.0958366 0.0952827 0.0937455 0.0925632 0.0916048 0.0917186 0.0916151 0.0916589 0.0895211 0.0865184 0.083333 0.0795765 0.0758606 0.07303 0.0710623 0.0707415 0.0702736 0.0696695 0.0690817 0.0672756 0.0647339 0.0625472 0.0609226 0.0577814 0.0551582 0.0524763 0.0497486 0.0469794 0.0449765 0.0412759 0.0372057 0.032687 0.0276829 0.0220309 0.0159434 0.00940867 0.00195815
260.5475 0.00025 0.00596447 0.0304584 0.0748084 0.118943 0.130657 0.1412 0.135433 0.138802 0.137616 0.136458 0.141267 0.148405 0.145851 0.144569 0.141366 0.138652 0.135096 0.132955 0.130095 0.126968 0.128516 0.126327 0.124288 0.121643 0.11761 0.115654 0.115085 0.115196 0.114924 0.116096 0.112424 0.110966 0.111832 0.110844 0.109394 0.112505 0.111322 0.111974 0.112159 0.111277 0.107702 0.106664 0.104307 0.101967 0.100268 0.0996603 0.0983372 0.0992756 0.101116 0.104191 0.106358 0.107918 0.106524 0.105854 0.105407 0.105099 0.104478 0.102924 0.101309 0.0996154 0.0971792 0.0965499 0.0965661 0.0958028 0.095258 0.0938023 0.0925674 0.0915607 0.0916895 0.0914973 0.0916213 0.0896831 0.086779 0.0836778 0.0799458 0.0761908 0.0732477 0.0711505 0.070779 0.0703852 0.069716 0.0691166 0.0673171 0.0647392 0.0624952 0.0609098 0.0578518 0.0552239 0.0525119 0.0498491 0.0470431 0.0449948 0.0413187 0.0372375 0.0327186 0.0276944 0.0220593 0.0159553 0.00941519 0.00195938
260.55 0.00025 0.00598362 0.0302949 0.0745653 0.118512 0.130314 0.140812 0.135366 0.13853 0.13739 0.13643 0.140923 0.148095 0.145822 0.144518 0.141249 0.138414 0.134821 0.132644 0.129905 0.126852 0.128623 0.126473 0.124521 0.121882 0.117628 0.115403 0.114885 0.115073 0.11488 0.116132 0.112538 0.111017 0.111974 0.110971 0.109444 0.112429 0.111332 0.111789 0.112044 0.111234 0.107782 0.106683 0.104507 0.102147 0.100494 0.100098 0.0986973 0.0996238 0.101314 0.104282 0.106472 0.108046 0.106692 0.105898 0.105367 0.105013 0.104371 0.102918 0.101316 0.0996348 0.0972412 0.0964858 0.0964287 0.0957658 0.0952333 0.09385 0.0925768 0.0915139 0.0916566 0.0913802 0.0915482 0.0898205 0.0870351 0.0840209 0.0803264 0.0765397 0.073489 0.0712515 0.0708169 0.070493 0.0697639 0.0691515 0.0673611 0.064752 0.0624452 0.0608874 0.0579228 0.0552879 0.0525489 0.0499497 0.0471151 0.0450119 0.0413588 0.0372703 0.0327464 0.0277062 0.0220886 0.0159683 0.00942217 0.00196074
260.5525 0.00025 0.00600206 0.0301353 0.0743041 0.118101 0.129994 0.140327 0.135347 0.138198 0.137188 0.136417 0.140687 0.147714 0.145802 0.144476 0.141103 0.138183 0.134587 0.132323 0.129728 0.126789 0.128735 0.126611 0.124775 0.122123 0.117656 0.11518 0.114692 0.114934 0.114873 0.116138 0.112643 0.111076 0.112093 0.111117 0.10952 0.112349 0.111349 0.111602 0.111882 0.111174 0.107867 0.106692 0.104687 0.102354 0.100685 0.100527 0.0990861 0.100009 0.101528 0.104379 0.106589 0.108167 0.106863 0.105939 0.105334 0.104934 0.10427 0.102913 0.101322 0.0996537 0.0973046 0.0964258 0.09628 0.0957223 0.09521 0.0938889 0.0925905 0.0914651 0.0916183 0.0912686 0.0914438 0.0899283 0.0872856 0.0843603 0.0807166 0.0769042 0.0737541 0.0713668 0.0708552 0.0705955 0.0698134 0.0691862 0.0674073 0.064771 0.062398 0.0608571 0.0579926 0.0553508 0.0525881 0.0500501 0.0471958 0.0450296 0.0413966 0.0373038 0.0327704 0.0277183 0.0221185 0.0159823 0.00942987 0.00196222
260.555 0.00025 0.0060186 0.0299905 0.0740312 0.11772 0.1297 0.139785 0.135364 0.13782 0.13702 0.136425 0.140548 0.14729 0.14577 0.144461 0.140926 0.137952 0.134403 0.131996 0.129565 0.126781 0.128844 0.126746 0.125037 0.122363 0.117698 0.114987 0.114514 0.114781 0.1149 0.116114 0.112743 0.111146 0.112191 0.111273 0.10962 0.112264 0.111368 0.111418 0.111684 0.111089 0.107953 0.106699 0.104846 0.102587 0.10085 0.100925 0.0995001 0.10043 0.101756 0.104485 0.106711 0.10828 0.107039 0.105981 0.105307 0.104866 0.104176 0.102909 0.101326 0.0996715 0.0973678 0.0963694 0.096126 0.0956723 0.0951877 0.0939179 0.0926072 0.0914158 0.0915727 0.0911634 0.0913138 0.0900012 0.0875276 0.0846938 0.0811129 0.0772824 0.0740437 0.0714995 0.0708957 0.0706928 0.069865 0.0692221 0.0674558 0.0647954 0.0623552 0.0608211 0.0580587 0.0554124 0.0526302 0.0501489 0.0472836 0.0450479 0.0414317 0.0373375 0.0327908 0.0277313 0.0221487 0.0159976 0.00943793 0.00196381
260.5575 0.00025 0.00603194 0.0298701 0.0737541 0.117362 0.129432 0.139228 0.135398 0.137401 0.13686 0.136451 0.140495 0.146857 0.145705 0.144492 0.140724 0.137706 0.134264 0.131665 0.129417 0.126832 0.128943 0.12688 0.125305 0.122594 0.117756 0.114826 0.114347 0.114614 0.114956 0.116062 0.112839 0.111226 0.112266 0.111433 0.109744 0.112182 0.111381 0.111242 0.111458 0.110976 0.108039 0.106711 0.104974 0.10284 0.101009 0.101273 0.0999294 0.100889 0.102001 0.104603 0.106836 0.108384 0.107217 0.106025 0.105287 0.104808 0.104088 0.102906 0.101329 0.0996856 0.097431 0.0963177 0.0959697 0.0956102 0.0951629 0.0939378 0.0926271 0.0913687 0.09152 0.091067 0.0911652 0.0900367 0.0877589 0.08502 0.0815116 0.0776714 0.0743575 0.0716523 0.0709403 0.0707855 0.0699182 0.0692584 0.0675066 0.0648242 0.0623165 0.060782 0.0581189 0.0554723 0.0526761 0.0502459 0.0473786 0.0450681 0.0414641 0.0373707 0.0328079 0.0277447 0.0221789 0.0160136 0.00944623 0.00196562
260.56 0.00025 0.00604251 0.0297672 0.0734752 0.117047 0.129211 0.138695 0.13543 0.136964 0.136702 0.136498 0.140489 0.146441 0.145592 0.144579 0.140522 0.137451 0.13417 0.131324 0.129279 0.126938 0.129024 0.127019 0.12557 0.122815 0.117835 0.114694 0.114193 0.114441 0.115032 0.115978 0.112933 0.11132 0.112323 0.111595 0.109897 0.11211 0.11138 0.111076 0.111213 0.11083 0.10812 0.106731 0.105077 0.103101 0.101185 0.101567 0.100363 0.101385 0.102263 0.104737 0.106964 0.108478 0.107396 0.10607 0.10527 0.104759 0.104007 0.102903 0.101333 0.099697 0.0974948 0.0962699 0.0958148 0.0955361 0.0951334 0.0939471 0.0926477 0.0913232 0.0914597 0.090979 0.0910042 0.0900331 0.0879764 0.0853387 0.0819097 0.0780691 0.0746939 0.0718281 0.0709904 0.070873 0.0699728 0.0692957 0.06756 0.0648562 0.0622819 0.0607426 0.0581712 0.0555311 0.0527269 0.0503406 0.0474794 0.0450909 0.0414937 0.0374027 0.0328213 0.0277587 0.0222087 0.0160311 0.00945488 0.00196757
260.5625 0.00025 0.00604927 0.0296875 0.0732051 0.11676 0.129044 0.138204 0.135453 0.136531 0.136549 0.13657 0.140509 0.146076 0.145429 0.14472 0.140334 0.137188 0.134115 0.130987 0.129147 0.127092 0.129083 0.127167 0.125828 0.123023 0.117943 0.114588 0.114055 0.114265 0.115118 0.115872 0.113021 0.111424 0.112357 0.111751 0.110075 0.112047 0.111359 0.110922 0.110964 0.110654 0.108193 0.106764 0.105162 0.103353 0.10139 0.101809 0.100783 0.101911 0.102544 0.10489 0.107098 0.108565 0.107573 0.10612 0.105258 0.10472 0.103935 0.102899 0.10134 0.0997035 0.097557 0.0962245 0.0956649 0.0954518 0.0950973 0.093945 0.0926683 0.0912787 0.0913917 0.0909002 0.0908373 0.0899915 0.0881757 0.0856479 0.0823038 0.0784718 0.075051 0.0720294 0.0710481 0.0709559 0.0700289 0.0693334 0.0676161 0.0648908 0.062251 0.0607046 0.058213 0.0555877 0.0527824 0.0504324 0.0475848 0.0451177 0.0415212 0.0374325 0.0328317 0.0277733 0.0222383 0.0160497 0.00946357 0.00196963
260.565 0.00025 0.00605015 0.0296297 0.0729564 0.116506 0.12894 0.13779 0.135474 0.136137 0.136393 0.136668 0.14052 0.145758 0.145227 0.144898 0.140174 0.13692 0.134078 0.130675 0.12903 0.127284 0.129128 0.127327 0.126071 0.123215 0.118083 0.114501 0.113933 0.114092 0.115202 0.11575 0.113102 0.111532 0.112366 0.111896 0.110276 0.111998 0.11131 0.110777 0.11071 0.110448 0.108252 0.10681 0.10524 0.103588 0.10163 0.102012 0.101173 0.102458 0.102845 0.105067 0.107241 0.108645 0.107745 0.106174 0.10525 0.104689 0.103872 0.102894 0.101352 0.0997057 0.0976154 0.0961831 0.0955238 0.0953592 0.0950514 0.0939309 0.0926883 0.0912362 0.0913159 0.0908285 0.0906681 0.089914 0.0883519 0.0859483 0.082693 0.0788779 0.075426 0.0722582 0.0711165 0.0710343 0.0700863 0.0693715 0.0676749 0.0649274 0.0622238 0.0606705 0.0582431 0.0556418 0.0528429 0.0505215 0.0476939 0.0451493 0.0415467 0.0374596 0.0328392 0.0277886 0.0222675 0.0160692 0.00947247 0.00197177
260.5675 0.00025 0.00604452 0.0295943 0.0727443 0.116289 0.128906 0.137449 0.135487 0.135813 0.136223 0.136794 0.14051 0.145498 0.145001 0.145099 0.140059 0.136658 0.134045 0.130399 0.128911 0.127495 0.129156 0.127499 0.126301 0.123388 0.118258 0.114432 0.113833 0.113923 0.11527 0.115616 0.113176 0.111647 0.112358 0.112031 0.110494 0.11196 0.111237 0.110645 0.110462 0.110217 0.108299 0.106865 0.105317 0.103794 0.101898 0.102192 0.101522 0.103009 0.103164 0.10527 0.107393 0.108719 0.107912 0.106234 0.105248 0.104665 0.10382 0.102886 0.101367 0.0997041 0.0976693 0.0961468 0.0953917 0.0952615 0.0949932 0.0939014 0.0927045 0.0911951 0.091233 0.0907617 0.090499 0.0898048 0.088501 0.0862392 0.0830769 0.079284 0.0758159 0.0725167 0.0711981 0.0711094 0.0701464 0.0694108 0.0677368 0.0649652 0.0621993 0.0606418 0.0582604 0.0556929 0.0529074 0.0506071 0.0478053 0.0451864 0.0415712 0.037484 0.0328447 0.0278043 0.022296 0.0160897 0.00948138 0.00197407
260.57 0.00025 0.00603211 0.0295742 0.07258 0.116105 0.128946 0.137203 0.135503 0.135586 0.136048 0.136947 0.140454 0.145283 0.144767 0.145303 0.139988 0.136419 0.134002 0.130165 0.128793 0.127717 0.129177 0.12768 0.126506 0.123537 0.118465 0.114374 0.113754 0.113764 0.11531 0.11548 0.113244 0.111766 0.11233 0.112155 0.11072 0.111931 0.111139 0.110525 0.110222 0.109972 0.108333 0.106928 0.105399 0.103971 0.102182 0.102368 0.101825 0.103551 0.103503 0.105503 0.107557 0.108785 0.10807 0.106304 0.105253 0.104647 0.103777 0.102877 0.101388 0.0996987 0.0977147 0.0961144 0.0952686 0.0951608 0.0949228 0.0938568 0.0927157 0.091155 0.0911446 0.0907 0.0903323 0.089669 0.0886187 0.0865184 0.083454 0.0796863 0.0762171 0.0728053 0.0712959 0.0711817 0.0702089 0.0694513 0.0678015 0.0650041 0.0621768 0.0606196 0.0582642 0.0557407 0.0529761 0.0506901 0.0479186 0.04523 0.0415954 0.0375053 0.0328484 0.0278199 0.0223236 0.0161112 0.00949076 0.00197645
260.5725 0.00025 0.00601029 0.0295636 0.0724688 0.115955 0.129049 0.137046 0.135539 0.135478 0.135875 0.137117 0.140345 0.145094 0.144545 0.145486 0.139966 0.13621 0.133936 0.129983 0.128676 0.127928 0.129192 0.127871 0.126692 0.123674 0.118705 0.114324 0.113698 0.113616 0.115318 0.115346 0.113302 0.111886 0.112289 0.112272 0.110951 0.111901 0.111015 0.110409 0.109991 0.109713 0.108353 0.106997 0.105489 0.104125 0.102468 0.102554 0.102087 0.104066 0.103859 0.105768 0.107735 0.108847 0.108219 0.106382 0.105265 0.104631 0.103744 0.102866 0.101415 0.0996936 0.0977524 0.096087 0.095155 0.0950591 0.0948404 0.0937959 0.0927194 0.0911172 0.0910514 0.0906414 0.0901696 0.0895139 0.0887052 0.0867859 0.0838252 0.080083 0.0766265 0.0731235 0.0714133 0.0712518 0.0702737 0.0694925 0.0678686 0.0650439 0.0621556 0.0606041 0.0582548 0.0557849 0.0530475 0.0507697 0.0480316 0.0452798 0.0416197 0.0375231 0.0328502 0.0278351 0.0223501 0.0161336 0.00950032 0.0019789
260.575 0.00025 0.00598094 0.0295604 0.0724082 0.115824 0.12921 0.136979 0.135588 0.135487 0.13571 0.137296 0.140189 0.144919 0.144354 0.145639 0.14 0.136041 0.13383 0.129852 0.128574 0.128123 0.129212 0.128067 0.126849 0.1238 0.118974 0.114283 0.113665 0.113484 0.115288 0.115217 0.113356 0.112004 0.112233 0.112377 0.111178 0.111867 0.110873 0.110298 0.109776 0.109455 0.108362 0.107067 0.105587 0.104265 0.102742 0.102761 0.102319 0.104538 0.104226 0.106062 0.107929 0.108908 0.108358 0.106468 0.105286 0.104618 0.103719 0.102854 0.101446 0.0996886 0.0977815 0.0960636 0.0950498 0.094958 0.0947481 0.0937207 0.0927144 0.09108 0.0909533 0.0905843 0.0900101 0.0893441 0.0887593 0.0870393 0.0841905 0.0804723 0.0770387 0.0734697 0.0715533 0.0713209 0.0703415 0.0695348 0.067938 0.0650857 0.0621363 0.0605958 0.0582337 0.0558258 0.0531215 0.0508465 0.0481438 0.0453361 0.0416444 0.037537 0.0328507 0.0278498 0.0223756 0.0161564 0.0095098 0.00198145
260.5775 0.00025 0.00594452 0.0295598 0.0723942 0.115718 0.129395 0.137002 0.135654 0.135606 0.135576 0.137477 0.139988 0.144729 0.144205 0.145729 0.140086 0.13592 0.133684 0.129765 0.128498 0.128293 0.129241 0.128258 0.12698 0.123919 0.11926 0.114245 0.11365 0.113364 0.115223 0.115095 0.113399 0.112117 0.112167 0.112471 0.111395 0.111826 0.110716 0.110186 0.109572 0.109203 0.108355 0.107135 0.10569 0.104399 0.102991 0.102988 0.102535 0.104955 0.104595 0.10638 0.10814 0.108972 0.108488 0.106562 0.105318 0.104607 0.103703 0.102844 0.10148 0.099684 0.0978019 0.0960444 0.0949536 0.0948586 0.0946489 0.0936302 0.0926972 0.0910433 0.0908501 0.0905268 0.089856 0.0891637 0.0887815 0.0872752 0.0845493 0.0808545 0.0774497 0.0738417 0.0717189 0.0713914 0.0704136 0.0695784 0.068008 0.0651294 0.0621188 0.060594 0.0582019 0.0558626 0.0531969 0.0509204 0.0482538 0.0453991 0.0416703 0.0375478 0.0328508 0.0278636 0.0223993 0.0161798 0.00951936 0.00198411