260.5025 0.00025 -4.65203e-05 -0.00139984 -0.00482924 -0.00987267 -0.00318754 -0.00125004 -0.000599302 0.000380385 0.00408808 0.00724156 0.00659115 0.0104524 0.00791464 0.00940578 0.0107467 0.00889415 0.00843139 0.0104354 0.00977789 0.0108544 0.00953959 0.00738335 0.00520913 0.00507517 0.00645283 0.00753146 0.00882901 0.0117892 0.0122888 0.00969191 0.0073299 0.00573718 0.00312605 0.00250945 0.0031374 0.00499443 0.00645348 0.00743204 0.0084364 0.00821445 0.00769422 0.00778002 0.00826626 0.00710047 0.00588901 0.00430372 0.00399188 0.00509335 0.00558866 0.00613125 0.00590251 0.00538576 0.00579385 0.00658081 0.00752062 0.00847288 0.0102556 0.0127189 0.0152842 0.0166967 0.0186778 0.0206851 0.0206287 0.021397 0.0210303 0.0206899 0.0203842 0.019283 0.0184684 0.0169904 0.0161458 0.0148194 0.0135807 0.0127129 0.0113031 0.0100776 0.00920667 0.00924655 0.0089845 0.00834993 0.00777542 0.00696623 0.00663718 0.00726375 0.00725909 0.00664774 0.00626872 0.00607761 0.00544719 0.00453981 0.00441464 0.00344347 0.00276231 0.00237976 0.00205254 0.00115587 0.000993525 0.000525395 0.000132422 1.71453e-05
260.505 0.00025 -4.54208e-05 -0.00145089 -0.00482507 -0.00957409 -0.00271378 -0.00128474 -0.000569062 0.000370848 0.00393529 0.00737433 0.00641976 0.0102209 0.00811015 0.00942471 0.0106687 0.00839024 0.00806528 0.0101455 0.00997868 0.0110751 0.00941395 0.00715334 0.00515183 0.00467685 0.00595764 0.00710011 0.00828832 0.0115133 0.012517 0.00994553 0.00743375 0.00558881 0.00305421 0.00230815 0.00298529 0.00501696 0.00652697 0.00745497 0.00847446 0.00876454 0.00811795 0.00819458 0.00858594 0.00750354 0.00627486 0.00452511 0.00417426 0.00508318 0.00550041 0.00596953 0.00571149 0.00513941 0.00553613 0.00628964 0.0073402 0.00827634 0.0101706 0.012654 0.0151919 0.0165913 0.018478 0.020603 0.0206032 0.0213915 0.0212797 0.0208791 0.0206756 0.0195904 0.0189367 0.0175115 0.0165458 0.0151989 0.0138135 0.0128577 0.0114167 0.0102084 0.00927763 0.00927014 0.00903645 0.00835149 0.00775483 0.00696891 0.00660409 0.00734869 0.00736451 0.0067188 0.00635221 0.00614561 0.00548539 0.0045562 0.00443219 0.00348605 0.00278275 0.00240649 0.00206335 0.00115657 0.000998956 0.000521131 0.000132445 1.693e-05
260.5075 0.00025 -4.4201e-05 -0.00149843 -0.00483664 -0.00923278 -0.00225268 -0.00136896 -0.000555617 0.000438794 0.00370874 0.0074339 0.00637468 0.00996813 0.00844397 0.00947219 0.0105554 0.00796412 0.00770066 0.00984109 0.010162 0.0112401 0.0092864 0.00692007 0.00506465 0.00428031 0.00540383 0.00666289 0.00778543 0.0111874 0.012674 0.0102301 0.00756525 0.00544793 0.00301646 0.00211738 0.00283681 0.00499709 0.00656625 0.00751704 0.00847882 0.00930288 0.00860748 0.00863963 0.0089235 0.00791103 0.00668339 0.00477588 0.00437247 0.00507027 0.00541182 0.00581069 0.00553067 0.00491089 0.00529005 0.00599082 0.00715503 0.00808485 0.0101079 0.0125988 0.0150976 0.0165064 0.0182839 0.0205069 0.0205796 0.0213654 0.0215034 0.0210472 0.0209268 0.0198801 0.0193702 0.0180623 0.0169583 0.0156062 0.0140803 0.0130205 0.0115277 0.0103327 0.00935089 0.00928999 0.00908778 0.00835478 0.00773672 0.0069802 0.00657706 0.00742122 0.00747113 0.00679433 0.00643545 0.00621014 0.00552512 0.00457311 0.00444433 0.00352829 0.00280461 0.00243275 0.00207295 0.00116115 0.00100432 0.000517282 0.000132712 1.66813e-05
260.51 0.00025 -4.28072e-05 -0.00154567 -0.00486155 -0.00884697 -0.00182111 -0.001477 -0.000534979 0.000578769 0.00339589 0.00743273 0.00643526 0.00971458 0.00888222 0.00954773 0.0104075 0.00761859 0.00737591 0.00952991 0.0103358 0.0113445 0.00916081 0.00668717 0.00494952 0.00388179 0.00480461 0.00621766 0.00732625 0.0108209 0.0127431 0.0105381 0.0077159 0.00532187 0.00300457 0.00193647 0.00269676 0.00493094 0.00656079 0.00762055 0.00846655 0.00980964 0.00915591 0.0091111 0.00929191 0.00832461 0.00711411 0.0050561 0.0045844 0.00505697 0.0053251 0.00565458 0.00535967 0.00470212 0.00505741 0.00568774 0.0069633 0.00790097 0.0100616 0.0125536 0.0150064 0.0164361 0.0180992 0.0203968 0.0205615 0.0213249 0.0217006 0.0211969 0.0211359 0.0201507 0.0197607 0.0186338 0.0173878 0.0160355 0.0143839 0.0132058 0.0116391 0.0104482 0.00942576 0.00930729 0.00913791 0.00835997 0.00772211 0.00699908 0.00655807 0.00748013 0.00757841 0.00687423 0.0065179 0.00626985 0.00556641 0.00459064 0.00445042 0.00356978 0.00282822 0.00245882 0.00208154 0.0011698 0.00100955 0.000513872 0.000133163 1.64035e-05
260.5125 0.00025 -4.09348e-05 -0.00159082 -0.00488929 -0.00844317 -0.00142389 -0.00160399 -0.000499546 0.000780551 0.0030224 0.00737181 0.00657775 0.00946941 0.00939503 0.0096442 0.0102105 0.00733724 0.00713641 0.00921165 0.0104986 0.0113784 0.00903804 0.00645858 0.00481792 0.00347823 0.00417368 0.00576725 0.00691592 0.01042 0.0127179 0.0108534 0.00787192 0.00521453 0.0030164 0.00177367 0.00256918 0.00482022 0.00650598 0.00775806 0.00845444 0.0102634 0.00975372 0.00959862 0.00969938 0.00874279 0.00756374 0.00536748 0.00480594 0.00504465 0.00524215 0.00549939 0.00519898 0.0045172 0.00484153 0.00538576 0.00676482 0.00772854 0.010029 0.012515 0.0149224 0.0163793 0.0179298 0.02027 0.0205485 0.0212765 0.02187 0.0213267 0.0213055 0.0204025 0.0201032 0.0192118 0.0178411 0.0164814 0.0147247 0.0134173 0.0117568 0.0105555 0.00950078 0.00932118 0.00918651 0.0083669 0.00771128 0.00702577 0.00654931 0.00752465 0.00768412 0.00695819 0.00659988 0.00632466 0.00561061 0.00460971 0.00445049 0.00361006 0.00285337 0.00248423 0.00208884 0.00118281 0.00101473 0.000510795 0.000133807 1.61171e-05
260.515 0.00025 -3.84032e-05 -0.00163055 -0.00490041 -0.00804965 -0.00106063 -0.0017558 -0.00044916 0.00103494 0.00262591 0.00722296 0.00678611 0.00922743 0.00993196 0.00975236 0.00995091 0.00711841 0.0070173 0.00889745 0.0106424 0.0113526 0.00892074 0.00623813 0.00467354 0.00306861 0.00352745 0.00531608 0.00655447 0.00998831 0.0126036 0.0111547 0.00802136 0.00513357 0.00304622 0.00162375 0.00245023 0.00466734 0.00639382 0.00791262 0.00845676 0.0106501 0.0103892 0.0100924 0.0101522 0.00917241 0.00803232 0.00571394 0.00503857 0.00503435 0.00516017 0.00534724 0.00504926 0.00435636 0.00464386 0.00508955 0.00655818 0.00756814 0.0100066 0.0124783 0.0148449 0.0163328 0.0177808 0.0201274 0.0205412 0.0212255 0.0220121 0.021439 0.0214375 0.0206343 0.0203976 0.0197807 0.0183225 0.0169414 0.0151038 0.013657 0.0118862 0.0106544 0.00957411 0.00933246 0.00923325 0.00837612 0.00770419 0.0070586 0.00655111 0.00755496 0.00778658 0.00704697 0.00668182 0.00637485 0.00565786 0.00463097 0.00444473 0.00364824 0.00287984 0.00250905 0.00209495 0.00120011 0.0010199 0.000508157 0.000134599 1.58425e-05
260.5175 0.00025 -3.56443e-05 -0.00167086 -0.00489064 -0.0077054 -0.000749862 -0.00190577 -0.000377055 0.00132188 0.00225313 0.00697055 0.00706421 0.0090102 0.01044 0.00986293 0.00962749 0.00695473 0.00701445 0.00862075 0.0107508 0.0112755 0.00881183 0.0060265 0.00451884 0.00265435 0.00287683 0.00486764 0.0062393 0.00953229 0.0124125 0.0114118 0.00814985 0.00508246 0.00309099 0.00149199 0.00234482 0.00447959 0.00622322 0.00807021 0.00848116 0.010962 0.0110402 0.0105836 0.0106551 0.0096192 0.00851695 0.00609665 0.00528064 0.00503287 0.00508158 0.00519698 0.00491053 0.00421977 0.00446441 0.00480444 0.00634524 0.00742386 0.00998786 0.0124419 0.0147726 0.0162912 0.0176536 0.0199705 0.0205393 0.0211774 0.0221314 0.021535 0.0215327 0.020845 0.0206445 0.0203258 0.0188339 0.0174131 0.01552 0.0139254 0.0120339 0.0107469 0.00964515 0.00934123 0.009277 0.00838693 0.00770032 0.00709682 0.00656484 0.00757232 0.00788271 0.00713946 0.00676324 0.00641999 0.00570808 0.00465504 0.0044332 0.00368392 0.00290773 0.00253329 0.00209995 0.0012215 0.00102492 0.000506043 0.000135433 1.55682e-05
260.52 0.00025 -3.3162e-05 -0.00170886 -0.00483614 -0.00743992 -0.000494976 -0.00201082 -0.000300962 0.0016109 0.00193764 0.006612 0.00739374 0.00881726 0.010852 0.00996357 0.00924239 0.00683538 0.00711051 0.00840918 0.010802 0.0111614 0.0087192 0.00582578 0.00435084 0.00223781 0.00223272 0.00442557 0.00596194 0.00905998 0.0121637 0.0116037 0.00825747 0.00505806 0.00314782 0.00137687 0.00224537 0.00426891 0.00599729 0.00820501 0.0085284 0.0112077 0.0116835 0.01107 0.0112048 0.0100958 0.00901824 0.00651318 0.00553245 0.00504281 0.0050015 0.0050497 0.00478268 0.00410715 0.00430261 0.00453236 0.00612862 0.00729531 0.00996769 0.0124063 0.0147049 0.0162563 0.0175505 0.019802 0.0205405 0.0211362 0.0222301 0.0216171 0.0215938 0.0210346 0.0208464 0.0208307 0.01937 0.017898 0.0159728 0.0142227 0.0122058 0.0108354 0.00971312 0.00934776 0.00931709 0.00840016 0.00770096 0.00714063 0.00659028 0.00757784 0.00796942 0.00723621 0.00684455 0.00646015 0.00576165 0.00468303 0.00441623 0.00371626 0.0029367 0.00255679 0.00210383 0.00124699 0.00102993 0.000504398 0.00013625 1.53168e-05
260.5225 0.00025 -3.10781e-05 -0.00175034 -0.00474091 -0.0072751 -0.000323062 -0.00206145 -0.000215743 0.00186535 0.00169569 0.006164 0.00773218 0.00865956 0.011122 0.0100501 0.00881737 0.00675338 0.00729003 0.0082672 0.0107862 0.0110187 0.00865652 0.00564193 0.00417435 0.00182893 0.00160553 0.00399657 0.00571727 0.00858455 0.0118769 0.011714 0.00833885 0.00506078 0.00321901 0.0012824 0.00215309 0.00404614 0.00572585 0.00829365 0.00859538 0.0114116 0.0122861 0.01155 0.0117814 0.0106131 0.00953749 0.00696117 0.00579219 0.00507053 0.00492223 0.00490529 0.00466335 0.00401439 0.00415984 0.00427768 0.00591198 0.00718388 0.00994212 0.0123708 0.0146392 0.0162254 0.0174689 0.0196259 0.0205423 0.021103 0.0223095 0.0216859 0.0216219 0.0211998 0.0210072 0.0212847 0.019924 0.0183987 0.0164591 0.0145476 0.0124078 0.0109245 0.00977684 0.00935229 0.00935312 0.00841615 0.00770596 0.00718933 0.00662766 0.00757394 0.00804359 0.00733641 0.00692549 0.00649567 0.00581831 0.00471586 0.00439412 0.00374477 0.00296671 0.00257956 0.00210696 0.00127616 0.00103497 0.000503257 0.000137083 1.50967e-05
260.525 0.00025 -2.94003e-05 -0.00178949 -0.00460991 -0.00721177 -0.000251363 -0.00202942 -0.000108457 0.00204433 0.00153974 0.00565206 0.0080245 0.00855623 0.0112313 0.0101109 0.00838539 0.00669751 0.00753969 0.00819855 0.010714 0.0108528 0.0086314 0.00547565 0.00398288 0.00143996 0.00100382 0.00357469 0.00549656 0.00812009 0.0115641 0.0117328 0.00838979 0.00508332 0.00330263 0.00121006 0.00205897 0.00381332 0.00542363 0.00831786 0.00867235 0.0115937 0.0128203 0.0120297 0.0123596 0.0111868 0.010077 0.00743941 0.00606342 0.0051206 0.00483992 0.00476443 0.00455345 0.0039423 0.00403651 0.00404507 0.00569818 0.00708713 0.00991051 0.0123351 0.0145705 0.0161987 0.0174066 0.0194458 0.020544 0.0210791 0.0223719 0.0217445 0.0216219 0.0213411 0.0211321 0.0216794 0.0204855 0.0189156 0.0169745 0.0149012 0.0126434 0.0110189 0.0098365 0.00935484 0.00938346 0.00843466 0.00771527 0.00724209 0.00667593 0.00756316 0.00810255 0.00744028 0.00700647 0.00652685 0.00587707 0.00475378 0.0043679 0.00376879 0.00299722 0.0026012 0.00210959 0.0013085 0.00104015 0.0005027 0.0001378 1.49211e-05
260.5275 0.00025 -2.76091e-05 -0.00182272 -0.00447997 -0.00722445 -0.000289262 -0.00193994 2.6488e-05 0.00212658 0.00145656 0.00510434 0.00821909 0.00854349 0.0111963 0.0101375 0.0079853 0.00665437 0.0078429 0.00820274 0.0105917 0.0106628 0.00863724 0.00532857 0.0037763 0.00107983 0.000433722 0.00316459 0.00528119 0.0076791 0.0112435 0.0116646 0.00840537 0.00511742 0.0033987 0.00115836 0.00195644 0.00357369 0.00510568 0.00825917 0.00876081 0.0117748 0.0132655 0.012518 0.0129066 0.011823 0.0106423 0.0079466 0.00634829 0.00519966 0.0047583 0.00463272 0.0044543 0.00388794 0.00392945 0.00383472 0.00549279 0.00700159 0.00986778 0.0122995 0.0145006 0.016175 0.0173594 0.0192653 0.0205435 0.0210647 0.0224186 0.0217966 0.0215997 0.0214575 0.0212279 0.0220073 0.0210411 0.0194504 0.0175148 0.0152844 0.0129142 0.011124 0.00989194 0.00935486 0.00940719 0.00845617 0.0077292 0.00729864 0.0067331 0.00754756 0.00814414 0.00754558 0.00708799 0.0065553 0.00593737 0.00479727 0.00433838 0.00378778 0.0030284 0.00262202 0.00211231 0.00134336 0.00104527 0.000502651 0.000138424 1.47938e-05
260.53 0.00025 -2.5592e-05 -0.0018494 -0.00435678 -0.00726905 -0.000459449 -0.00182548 0.000192468 0.00210723 0.00143539 0.00456289 0.00825209 0.00862424 0.0110348 0.0101081 0.00766035 0.00663286 0.00818122 0.00830061 0.0104282 0.0104543 0.00865837 0.0051987 0.00355967 0.000757288 -0.000102591 0.00277093 0.00506081 0.00727652 0.0109232 0.011515 0.00838144 0.00515588 0.0035081 0.00113188 0.0018438 0.0033337 0.00479191 0.00811051 0.00885521 0.0119592 0.0136084 0.013018 0.0133992 0.0125138 0.0112413 0.00848111 0.00664976 0.00530796 0.00467624 0.00450963 0.00436355 0.00384953 0.00383957 0.00365006 0.00530169 0.00692465 0.0098143 0.0122631 0.0144265 0.0161526 0.0173254 0.0190873 0.0205371 0.021059 0.0224519 0.0218445 0.0215625 0.021547 0.021298 0.0222643 0.0215776 0.0200007 0.018074 0.015699 0.0132206 0.0112469 0.00994456 0.00935315 0.00942362 0.00848109 0.00774758 0.00735848 0.00679883 0.0075305 0.00816788 0.00765075 0.00717017 0.0065821 0.00599779 0.00484621 0.00430669 0.00380118 0.00305968 0.00264138 0.00211547 0.00138034 0.00105066 0.000503154 0.000138917 1.47145e-05
260.5325 0.00025 -2.37204e-05 -0.00186388 -0.0042515 -0.00731451 -0.000750988 -0.00168916 0.000361451 0.0020191 0.00147641 0.00407678 0.00806965 0.00879706 0.0107876 0.0100215 0.00743582 0.00664205 0.00851525 0.00849902 0.0102394 0.0102366 0.00867425 0.00509439 0.00334725 0.000484734 -0.000605646 0.00239123 0.00482414 0.00692459 0.0106127 0.011304 0.00831747 0.00518547 0.00362796 0.00113082 0.00171658 0.00308987 0.00449433 0.00786423 0.00895876 0.0121486 0.0138621 0.0135299 0.013829 0.0132298 0.0118913 0.00904667 0.00697443 0.0054505 0.00459669 0.00439851 0.00427934 0.00382645 0.00376861 0.00349072 0.00512825 0.00685462 0.00974981 0.0122215 0.0143487 0.0161291 0.0173033 0.0189147 0.0205259 0.021062 0.0224701 0.0218909 0.0215165 0.0216105 0.0213496 0.0224534 0.0220823 0.0205637 0.0186486 0.0161457 0.0135612 0.0113949 0.00999699 0.00934969 0.00943136 0.00850913 0.00777029 0.00742138 0.00687127 0.00751388 0.00817352 0.00775295 0.00725257 0.00660871 0.00605761 0.0049008 0.00427438 0.00380844 0.00309109 0.0026596 0.00212 0.0014188 0.0010561 0.000504077 0.000139315 1.46774e-05
260.535 0.00025 -2.18311e-05 -0.00186422 -0.00416312 -0.00731055 -0.00114717 -0.00154368 0.00049056 0.0018916 0.00155494 0.0037041 0.00766505 0.0090405 0.010488 0.00988133 0.00731023 0.00669529 0.00881473 0.00878277 0.0100469 0.0100266 0.00866784 0.00501251 0.00313 0.000264446 -0.00106697 0.00202896 0.00455783 0.0066252 0.0103107 0.0110421 0.00821346 0.00519814 0.00376117 0.00115296 0.00157804 0.00284728 0.00421979 0.00752302 0.00907931 0.0123451 0.0140459 0.0140364 0.0142088 0.0139227 0.0125991 0.00964172 0.00732434 0.00562561 0.00452036 0.00429841 0.00419839 0.00381877 0.00371539 0.0033591 0.00498057 0.00678904 0.00967416 0.012172 0.0142707 0.0161004 0.017289 0.0187468 0.0205066 0.0210709 0.0224743 0.021938 0.0214681 0.0216487 0.0213869 0.0225768 0.0225404 0.0211348 0.0192344 0.0166246 0.0139329 0.0115732 0.010052 0.00934543 0.00942995 0.00853995 0.00779673 0.00748685 0.00694894 0.00749917 0.00816226 0.00784979 0.00733471 0.00663702 0.00611585 0.00496082 0.0042435 0.00380959 0.00312214 0.00267624 0.00212621 0.00145794 0.00106192 0.000505538 0.000139559 1.4684e-05
260.5375 0.00025 -2.03794e-05 -0.00185113 -0.00407876 -0.00724089 -0.00162042 -0.00137427 0.000567507 0.00176535 0.00166192 0.00344748 0.0070537 0.00931676 0.0101485 0.0097074 0.00727572 0.00680518 0.00907048 0.00910751 0.0098782 0.00984564 0.00863021 0.00495506 0.00291529 0.000101399 -0.0014763 0.00169198 0.00425873 0.00637913 0.0100174 0.0107413 0.00807825 0.00518929 0.00389915 0.00119489 0.00143362 0.0026072 0.00397471 0.00709682 0.00920546 0.0125351 0.014192 0.0145226 0.0145687 0.0145387 0.013368 0.0102732 0.00770774 0.00583385 0.00445425 0.00421329 0.00411829 0.00382282 0.00367698 0.00325497 0.00486183 0.00672655 0.00958936 0.0121116 0.0141918 0.0160637 0.01728 0.018583 0.020477 0.021087 0.022463 0.0219855 0.0214223 0.021664 0.0214108 0.0226412 0.0229396 0.0217057 0.0198263 0.0171344 0.0143338 0.0117872 0.0101142 0.00934112 0.00941932 0.00857415 0.00782698 0.00755448 0.00703029 0.00748776 0.00813594 0.00793801 0.00741541 0.00666866 0.00617133 0.00502527 0.00421564 0.00380489 0.00315252 0.00269122 0.00213443 0.001497 0.00106816 0.00050754 0.000139745 1.47258e-05
260.54 0.00025 -1.91935e-05 -0.00182729 -0.00401145 -0.00711543 -0.00213574 -0.00116973 0.000584753 0.00166139 0.00181686 0.003299 0.00630072 0.00957185 0.00978857 0.00951007 0.00730453 0.00698898 0.00927902 0.00943271 0.00976828 0.00970713 0.00855359 0.00492416 0.0027138 -1.04062e-05 -0.00182979 0.00138069 0.00392132 0.00617597 0.00972713 0.0104092 0.00792364 0.00514958 0.00403825 0.00125896 0.00128681 0.0023671 0.0037575 0.006613 0.00932939 0.012706 0.014325 0.0149632 0.0149341 0.0150367 0.0141747 0.0109476 0.00813267 0.00607146 0.00440134 0.00414546 0.00403707 0.00383897 0.00365486 0.0031781 0.00477509 0.00666762 0.00949842 0.0120386 0.014114 0.0160168 0.0172747 0.0184249 0.0204339 0.021112 0.0224357 0.0220322 0.0213834 0.0216585 0.0214239 0.0226579 0.0232696 0.0222683 0.0204184 0.0176701 0.0147629 0.01204 0.0101886 0.0093377 0.00939862 0.00861057 0.00786054 0.00762332 0.00711388 0.00748048 0.00809745 0.00801451 0.0074941 0.00670618 0.00622324 0.00509375 0.00419263 0.00379433 0.00318127 0.00270383 0.00214517 0.00153588 0.00107491 0.00050995 0.000139803 1.47977e-05
260.5425 0.00025 -1.83493e-05 -0.00179429 -0.00394883 -0.00694088 -0.00264162 -0.000936865 0.00055539 0.00160623 0.00203415 0.00323101 0.00548902 0.00973495 0.00944498 0.00929863 0.00737764 0.00726272 0.00944364 0.00974249 0.00974737 0.00962066 0.00844601 0.00491294 0.00253964 -6.70649e-05 -0.00211131 0.00110244 0.0035512 0.0060062 0.00943537 0.0100489 0.00776014 0.00507625 0.00416801 0.00134324 0.00114533 0.00212861 0.00356164 0.00609569 0.0094345 0.0128564 0.0144628 0.0153368 0.0153218 0.0154133 0.0149841 0.0116752 0.00861106 0.00634219 0.00436778 0.00409191 0.00395457 0.00386585 0.00364443 0.00312751 0.00471952 0.00661172 0.00940253 0.011954 0.0140345 0.0159608 0.0172708 0.0182732 0.0203749 0.0211451 0.0223954 0.0220781 0.021355 0.0216374 0.0214304 0.0226359 0.0235219 0.0228137 0.021005 0.0182268 0.0152213 0.0123336 0.0102811 0.0093371 0.00936849 0.0086482 0.00789782 0.00769367 0.00719849 0.00747719 0.0080503 0.00807724 0.00756859 0.00675097 0.00627126 0.00516547 0.00417619 0.00377851 0.00320819 0.00271428 0.00215809 0.00157361 0.0010822 0.000512663 0.000139745 1.49009e-05
260.545 0.00025 -1.80726e-05 -0.00175123 -0.00389771 -0.00673515 -0.00309245 -0.000662839 0.000496612 0.00158285 0.00233548 0.00320745 0.00471673 0.00973573 0.00915354 0.00905569 0.00747217 0.00762396 0.0095709 0.010041 0.0098295 0.00957087 0.00831105 0.00490843 0.00239131 -8.16203e-05 -0.00231843 0.000858594 0.00315266 0.00585379 0.00914229 0.00966726 0.00759564 0.00496632 0.00427692 0.00144643 0.00101877 0.00189283 0.00338071 0.00557357 0.00949986 0.0129843 0.014615 0.015631 0.0157363 0.0156974 0.0157279 0.0124573 0.00914898 0.00664341 0.00436082 0.00405866 0.00387281 0.00389997 0.00364821 0.00310329 0.00469453 0.00656142 0.00930467 0.0118587 0.0139512 0.0158981 0.0172675 0.01813 0.0202954 0.0211816 0.0223434 0.0221212 0.02134 0.0216065 0.0214314 0.022587 0.0236925 0.0233311 0.0215812 0.0187967 0.0157082 0.012667 0.0103982 0.00934137 0.00932984 0.00868653 0.00793802 0.00776518 0.00728355 0.00747757 0.0079977 0.00812422 0.00763701 0.00680489 0.00631538 0.00523951 0.00416762 0.00375835 0.00323273 0.00272257 0.00217382 0.00160983 0.00109004 0.000515826 0.000139598 1.50157e-05
260.5475 0.00025 -1.83671e-05 -0.00170224 -0.00384552 -0.00653186 -0.00345845 -0.000369039 0.000418169 0.00157211 0.00272021 0.00319332 0.00407248 0.00952689 0.00894805 0.00879406 0.00757442 0.0080537 0.00967989 0.0103253 0.0100083 0.00953902 0.00815487 0.00490555 0.00227512 -5.67587e-05 -0.00245482 0.000650727 0.00273161 0.00570067 0.00884103 0.00926553 0.00744235 0.00482495 0.00435252 0.00156529 0.000911499 0.0016608 0.00320544 0.00507381 0.00950776 0.0130928 0.0147875 0.0158521 0.0161556 0.0159369 0.0163394 0.0132851 0.00975952 0.00698119 0.0043878 0.00404311 0.0037919 0.00394024 0.00366671 0.00310358 0.00469627 0.0065189 0.0092036 0.0117564 0.013862 0.0158284 0.0172604 0.017997 0.0201942 0.021216 0.0222841 0.0221605 0.0213385 0.0215695 0.0214283 0.0225212 0.0237819 0.0238093 0.0221427 0.0193731 0.0162254 0.0130386 0.0105457 0.00935245 0.00928421 0.00872425 0.00798152 0.00783748 0.00736753 0.00748096 0.00794357 0.00815483 0.00769729 0.00686913 0.00635549 0.00531471 0.00416827 0.00373502 0.00325416 0.00272838 0.00219196 0.00164416 0.00109857 0.000519312 0.000139296 1.515e-05
260.55 0.00025 -1.89461e-05 -0.00165121 -0.00379464 -0.00634422 -0.00371262 -0.000106449 0.000343741 0.00154931 0.00319397 0.00316719 0.00362052 0.00909301 0.0088441 0.00852069 0.00765002 0.00852245 0.00978821 0.0105663 0.0102604 0.00950579 0.00797167 0.00490526 0.00218266 3.36132e-06 -0.00251702 0.000486664 0.00229712 0.00553188 0.00853024 0.00884697 0.00730343 0.00465322 0.0043849 0.00169367 0.000827464 0.00143213 0.00303188 0.00461965 0.00944678 0.0131856 0.014976 0.0160175 0.0165578 0.0161819 0.0167719 0.0141321 0.0104486 0.00735617 0.00445536 0.00404997 0.00371396 0.00398506 0.0037029 0.00312576 0.00471858 0.0064866 0.00910087 0.0116508 0.0137657 0.0157577 0.0172476 0.017875 0.02007 0.0212388 0.0222216 0.0221927 0.0213484 0.0215329 0.0214231 0.0224467 0.0237972 0.0242357 0.0226845 0.0199486 0.0167702 0.0134443 0.0107292 0.0093737 0.00923296 0.00875954 0.00802744 0.00791048 0.00744977 0.00748619 0.00789066 0.00816867 0.00774661 0.00694391 0.00639266 0.00539025 0.00417839 0.00370929 0.0032724 0.00273208 0.00221243 0.00167637 0.00110768 0.00052312 0.00013892 1.5334e-05
260.5525 0.00025 -1.99717e-05 -0.00159466 -0.00373679 -0.00617219 -0.00384439 7.46574e-05 0.000294817 0.00148706 0.00374115 0.00311587 0.0033842 0.0084524 0.00883618 0.00826566 0.00768846 0.00901051 0.00992883 0.0107267 0.0105357 0.00946116 0.0077681 0.00491233 0.00210521 9.91332e-05 -0.00251331 0.000354097 0.00185513 0.00534193 0.00820909 0.00841669 0.00717827 0.00446134 0.00436673 0.0018269 0.000777278 0.00120848 0.00285556 0.00422548 0.00931695 0.0132638 0.0151763 0.0161461 0.0169103 0.0164617 0.0170218 0.014955 0.0112158 0.00777533 0.00457195 0.00408045 0.00364153 0.00403013 0.00375695 0.003168 0.00475998 0.00646799 0.00899532 0.0115461 0.0136565 0.0156854 0.0172303 0.0177646 0.0199255 0.021239 0.0221582 0.0222154 0.021368 0.0215017 0.0214161 0.0223725 0.0237496 0.0245996 0.0232046 0.0205153 0.0173368 0.0138812 0.0109527 0.00940854 0.00917872 0.00879177 0.00807563 0.0079833 0.00752902 0.00749286 0.00784222 0.00816657 0.00778285 0.00702828 0.00642713 0.00546498 0.00419912 0.00368306 0.00328678 0.00273341 0.00223478 0.00170618 0.00111738 0.00052736 0.000138556 1.55255e-05
260.555 0.00025 -2.05003e-05 -0.00153686 -0.00367451 -0.0060165 -0.00383317 0.000159471 0.000292864 0.00137475 0.00432994 0.00302838 0.00335022 0.00768746 0.00889156 0.00806404 0.00768179 0.00948064 0.0101049 0.0108033 0.0107839 0.00939988 0.00754852 0.00492391 0.00202669 0.000237067 -0.00245981 0.000238202 0.00141564 0.00512251 0.00787713 0.00798151 0.00706281 0.00425488 0.00429793 0.00195875 0.000756687 0.000989378 0.00268329 0.00389938 0.00912593 0.0133151 0.0153798 0.0162521 0.0171953 0.0167895 0.01712 0.0156936 0.0120536 0.00824607 0.00474447 0.0041364 0.00357846 0.00407432 0.00382878 0.00322809 0.00481213 0.0064641 0.00889284 0.0114472 0.0135347 0.0156127 0.017209 0.0176666 0.0197663 0.0212072 0.0220953 0.0222302 0.0213963 0.0214768 0.0214072 0.022304 0.023654 0.0248897 0.023698 0.0210668 0.0179168 0.0143471 0.0112201 0.00946117 0.00912387 0.00881964 0.0081252 0.00805549 0.00760543 0.00750024 0.00779992 0.00815001 0.00780425 0.00712024 0.00645991 0.00553778 0.00423015 0.00365774 0.00329737 0.00273266 0.00225879 0.00173354 0.0011275 0.000531891 0.000138128 1.57583e-05
260.5575 0.00025 -2.08698e-05 -0.00147936 -0.00360862 -0.00587587 -0.00367987 0.000134374 0.000339876 0.00121926 0.00490819 0.0029208 0.00346877 0.00689816 0.00897056 0.00793509 0.00764832 0.00990368 0.0103135 0.0108252 0.0109591 0.00932696 0.0073249 0.00492706 0.0019344 0.000419858 -0.00236873 0.000124734 0.000993837 0.00487122 0.00753331 0.00755125 0.00694917 0.00403952 0.00418243 0.00208688 0.000769136 0.000772029 0.00251857 0.00364786 0.00888569 0.013338 0.0155849 0.0163465 0.0174015 0.0171506 0.0171322 0.0162913 0.0129381 0.00877821 0.00497919 0.00421937 0.0035308 0.00411622 0.00391846 0.00330467 0.00487072 0.00647397 0.00879371 0.0113546 0.0134037 0.0155341 0.0171852 0.0175817 0.0195999 0.021137 0.0220295 0.0222365 0.0214306 0.0214599 0.0213976 0.0222436 0.0235271 0.0250997 0.0241599 0.0215975 0.0185 0.0148406 0.0115326 0.00953638 0.00907196 0.00884317 0.00817562 0.00812589 0.00767774 0.00750726 0.00776492 0.00812078 0.00780996 0.00721727 0.00649235 0.00560776 0.0042712 0.00363478 0.00330396 0.00273042 0.0022839 0.00175829 0.00113802 0.000536674 0.000137623 1.60099e-05
260.56 0.00025 -2.02951e-05 -0.00142115 -0.00354072 -0.00572862 -0.00338237 1.75358e-05 0.000417131 0.0010535 0.00540079 0.00281716 0.00366736 0.00617248 0.00903692 0.00788975 0.00763124 0.0102512 0.0105358 0.0108283 0.0110228 0.0092455 0.00710954 0.00490646 0.0018271 0.000642023 -0.00225211 3.2732e-06 0.000603407 0.0045847 0.00717753 0.00713981 0.00682644 0.00381964 0.00402747 0.00219877 0.000808361 0.00055834 0.00237151 0.00346599 0.0086143 0.0133234 0.0157733 0.0164308 0.0175407 0.017515 0.0171284 0.0167191 0.0138231 0.00937299 0.00528534 0.00433679 0.00350241 0.00415555 0.00402595 0.00339927 0.00493367 0.00649556 0.00870179 0.0112697 0.0132699 0.0154485 0.017158 0.0175085 0.0194331 0.0210251 0.0219515 0.0222319 0.02147 0.0214514 0.0213891 0.0221925 0.0233855 0.0252279 0.0245841 0.0221038 0.0190757 0.015358 0.0118903 0.00964006 0.00902568 0.00886154 0.0082263 0.00819284 0.00774556 0.00751408 0.00773788 0.00808057 0.0077996 0.0073157 0.00652472 0.00567374 0.00432246 0.00361586 0.0033064 0.00272676 0.00230964 0.00178048 0.00114864 0.000541814 0.000137128 1.6278e-05
260.5625 0.00025 -1.86716e-05 -0.00136444 -0.00347065 -0.00558758 -0.00295289 -0.000143804 0.000537284 0.000917046 0.00572629 0.00276682 0.00387191 0.00557678 0.00907002 0.00789485 0.00766546 0.0105109 0.0107614 0.0108557 0.0109812 0.00916193 0.00691767 0.00485874 0.00171253 0.000885389 -0.00211871 -0.000129678 0.000256981 0.00425916 0.00681084 0.00675912 0.00669042 0.00359772 0.00384495 0.00228179 0.000858828 0.000347001 0.00224473 0.00335491 0.00833862 0.013274 0.0159359 0.0165091 0.0176315 0.0178429 0.0171506 0.0169767 0.0146574 0.0100299 0.00566554 0.00449169 0.00349778 0.00419216 0.00414923 0.00351228 0.00499871 0.00652629 0.00862021 0.0111907 0.0131369 0.0153534 0.0171279 0.0174473 0.0192696 0.0208758 0.0218567 0.0222148 0.0215126 0.0214499 0.0213828 0.0221482 0.0232412 0.0252797 0.0249658 0.0225843 0.0196337 0.0158961 0.0122905 0.00977681 0.00898828 0.00887537 0.008277 0.00825502 0.00780982 0.00752106 0.00771883 0.0080321 0.00777518 0.0074122 0.00655833 0.00573492 0.00438304 0.00360244 0.00330504 0.00272161 0.0023352 0.00180023 0.00115915 0.000547218 0.000136699 1.65543e-05
260.565 0.00025 -1.56683e-05 -0.00131392 -0.00341081 -0.0054468 -0.00242654 -0.000304334 0.000707201 0.000826565 0.00582216 0.00276011 0.00401476 0.00515657 0.00906177 0.00793234 0.00777645 0.0106857 0.0109841 0.0109319 0.0108605 0.00908786 0.00675654 0.00477354 0.00160003 0.00113721 -0.00197709 -0.000275221 -4.71975e-05 0.00389513 0.00643839 0.00641627 0.00653249 0.00336999 0.0036429 0.00232815 0.000909053 0.000145071 0.00214975 0.00330033 0.00806652 0.0131913 0.016064 0.0165804 0.0176971 0.018101 0.0172236 0.0171031 0.0153845 0.0107354 0.00612444 0.00469124 0.00352262 0.00422919 0.00428683 0.00364225 0.00506179 0.00656337 0.00855354 0.0111163 0.0130089 0.0152499 0.0170931 0.0173982 0.0191127 0.0206951 0.0217389 0.0221818 0.0215563 0.021455 0.0213829 0.0221099 0.0231039 0.0252649 0.0252954 0.0230377 0.0201663 0.0164471 0.0127303 0.00995332 0.00896383 0.00888492 0.00832789 0.00831071 0.00787014 0.00752824 0.00770702 0.0079776 0.00773904 0.0075026 0.00659334 0.00579002 0.00445199 0.00359588 0.00330029 0.00271585 0.00236036 0.00181763 0.00116951 0.00055288 0.000136251 1.68265e-05
260.5675 0.00025 -1.14879e-05 -0.00127399 -0.00335906 -0.00533702 -0.00185346 -0.000438601 0.000924412 0.000766913 0.00567868 0.00277725 0.00406196 0.0049214 0.00898847 0.00800871 0.00796106 0.0107952 0.0111883 0.0110651 0.0107002 0.00901969 0.00662819 0.0046581 0.00150266 0.00138499 -0.00183022 -0.000431317 -0.000309482 0.00349576 0.00606072 0.00611924 0.00635566 0.00313908 0.00342774 0.00232953 0.000944185 -4.00158e-05 0.00208853 0.00328948 0.00781487 0.0130759 0.0161516 0.0166384 0.0177502 0.0182745 0.0173518 0.017158 0.0159607 0.0114615 0.00666006 0.00494251 0.003583 0.00426652 0.00443685 0.003791 0.00512352 0.00660306 0.00850074 0.0110439 0.0128913 0.0151408 0.0170508 0.0173605 0.018965 0.0204938 0.0215936 0.0221281 0.0215986 0.0214631 0.0213865 0.0220747 0.0229776 0.0251987 0.0255664 0.0234631 0.0206684 0.0170018 0.013207 0.0101736 0.00895617 0.00889188 0.00837825 0.00835777 0.00792721 0.0075358 0.00770114 0.00791865 0.00769414 0.00758362 0.00662984 0.00583881 0.00452865 0.003597 0.00329306 0.00270998 0.00238452 0.00183276 0.00117952 0.000558773 0.000135893 1.70767e-05