265.5025 0.00025 5.29629 4.4657 4.02162 3.32952 3.17183 3.11883 3.10417 3.07798 3.08294 3.09471 3.04725 2.9869 3.07771 3.05575 3.05392 2.92237 2.87075 2.90412 2.95435 2.9841 2.98543 3.06795 3.07247 3.10017 3.13806 3.15611 3.20833 3.27313 3.33019 3.35887 3.31592 3.22589 3.12814 3.15835 3.19008 3.15313 3.08982 3.11304 2.99672 3.03132 2.91659 2.9182 3.02005 3.10975 3.05999 3.0139 3.11792 3.23448 3.38127 3.42708 3.49443 3.5175 3.34329 3.3181 3.30849 3.21211 3.25803 3.52539 3.66025 3.71527 3.71248 3.7573 3.68242 3.69978 3.76769 3.64289 3.55277 3.54214 3.48778 3.51506 3.61224 3.65944 3.69128 3.75204 3.92122 4.13277 4.3854 4.82588 5.28614 6.0939 6.7471 6.97796 7.30594 7.63072 7.62148 6.81838 5.63752 5.2119 4.58807 3.85575 3.66571 3.87915 4.08404 4.33013 4.56402 4.95773 5.468 5.737 6.3684 7.43291
265.505 0.00025 5.21089 4.37829 3.97374 3.31168 3.1629 3.12141 3.09755 3.10597 3.0868 3.10816 3.03863 2.99311 3.08412 3.06451 3.05745 2.91824 2.87525 2.91168 2.95114 2.981 2.98241 3.05944 3.07203 3.11146 3.13669 3.14336 3.19585 3.26088 3.30955 3.36301 3.30144 3.21233 3.10425 3.1295 3.18708 3.16511 3.10234 3.12182 3.01253 3.03889 2.91799 2.90362 3.00313 3.08924 3.06922 3.0119 3.10844 3.22753 3.38397 3.44163 3.50877 3.53435 3.36051 3.32041 3.31767 3.21014 3.22705 3.49362 3.63868 3.71699 3.71202 3.74771 3.67463 3.67945 3.75781 3.65398 3.55481 3.54404 3.48244 3.50307 3.60921 3.66677 3.6993 3.7527 3.92004 4.12674 4.35704 4.8096 5.24443 6.01904 6.72568 6.97208 7.28305 7.59468 7.62647 6.90834 5.68848 5.21099 4.64604 3.90058 3.67107 3.87312 4.07118 4.31408 4.55106 4.93773 5.45508 5.71269 6.30929 7.40485
265.5075 0.00025 5.12388 4.28735 3.92941 3.29437 3.15485 3.12652 3.09341 3.12934 3.0883 3.11388 3.03079 3.00178 3.08858 3.07413 3.06199 2.91904 2.8816 2.92127 2.95119 2.97673 2.98164 3.05356 3.07061 3.12123 3.13307 3.13405 3.18449 3.2456 3.28892 3.36411 3.28435 3.2004 3.08337 3.10186 3.17952 3.17683 3.11602 3.13031 3.02897 3.04542 2.92148 2.89208 2.98724 3.06726 3.07403 3.01206 3.09898 3.21922 3.38479 3.4564 3.52179 3.5497 3.37824 3.32487 3.32731 3.21099 3.20006 3.46129 3.61461 3.71554 3.71341 3.73926 3.66774 3.6608 3.74286 3.66408 3.55723 3.54509 3.47737 3.49167 3.60483 3.6733 3.70774 3.75373 3.91948 4.12229 4.33067 4.78957 5.21312 5.94223 6.69724 6.96735 7.26309 7.55835 7.62378 6.99255 5.74991 5.20845 4.69916 3.94846 3.67836 3.86739 4.05897 4.29822 4.53832 4.91813 5.44215 5.6897 6.24986 7.3729
265.51 0.00025 5.03544 4.1952 3.89706 3.27693 3.15228 3.13398 3.09178 3.1434 3.08742 3.1104 3.02655 3.01167 3.09166 3.08445 3.06793 2.92461 2.88914 2.93259 2.95552 2.97123 2.98337 3.05064 3.06921 3.12905 3.12716 3.12818 3.17255 3.22774 3.26867 3.36091 3.26538 3.18958 3.06555 3.07607 3.16826 3.18634 3.13049 3.13908 3.04495 3.05155 2.92664 2.88368 2.97245 3.04492 3.07374 3.01344 3.08998 3.21 3.38328 3.47206 3.53325 3.56352 3.39608 3.332 3.33683 3.21419 3.17734 3.42828 3.58972 3.7098 3.71637 3.73199 3.66127 3.64418 3.72376 3.67196 3.56019 3.5454 3.47263 3.48082 3.5991 3.67907 3.71654 3.75512 3.91963 4.11903 4.30691 4.76532 5.19056 5.86597 6.66171 6.96386 7.24714 7.52286 7.61396 7.06925 5.82134 5.20633 4.74689 3.99915 3.68774 3.86196 4.04741 4.28256 4.52573 4.89899 5.4292 5.66797 6.1901 7.33774
265.5125 0.00025 4.94178 4.10249 3.87744 3.26145 3.15795 3.14422 3.09246 3.145 3.08499 3.09873 3.02698 3.02126 3.09396 3.09508 3.07641 2.93395 2.89812 2.94526 2.96428 2.96456 2.98744 3.04999 3.06902 3.13457 3.11969 3.12522 3.15885 3.20829 3.24903 3.35282 3.24552 3.17972 3.05059 3.05299 3.15488 3.19171 3.14551 3.14831 3.05915 3.05763 2.93316 2.87832 2.95881 3.0238 3.06877 3.01492 3.0816 3.19991 3.37915 3.48809 3.54319 3.57566 3.41356 3.34215 3.34612 3.2191 3.15957 3.39492 3.5647 3.6989 3.72056 3.72625 3.65503 3.62991 3.70178 3.67649 3.56379 3.54454 3.46854 3.47083 3.59185 3.68388 3.72553 3.75669 3.92032 4.11651 4.28617 4.73708 5.1744 5.7928 6.61901 6.95996 7.2345 7.48907 7.59706 7.13744 5.90109 5.20584 4.7891 4.05236 3.69946 3.85695 4.03646 4.26707 4.51332 4.88033 5.41631 5.64747 6.13064 7.29878
265.515 0.00025 4.84465 4.0169 3.86045 3.25187 3.17377 3.15939 3.09308 3.13389 3.0805 3.0819 3.03162 3.02956 3.09565 3.10483 3.08755 2.94583 2.90884 2.95891 2.97676 2.957 2.99346 3.05057 3.0714 3.13657 3.11153 3.12439 3.14318 3.18831 3.23037 3.34015 3.22538 3.16998 3.03796 3.033 3.14074 3.19153 3.16022 3.1583 3.07123 3.06442 2.94043 2.87558 2.94614 3.00454 3.05998 3.01532 3.0739 3.18919 3.37228 3.50427 3.55132 3.58636 3.43046 3.3552 3.3553 3.22519 3.14703 3.36155 3.5403 3.68324 3.72563 3.72218 3.64883 3.61796 3.67827 3.67683 3.56803 3.54236 3.46509 3.46171 3.58329 3.68788 3.73469 3.75864 3.92171 4.11444 4.26868 4.70567 5.16216 5.7249 6.56911 6.95456 7.22481 7.45753 7.5746 7.19755 5.98812 5.2088 4.82559 4.10746 3.71354 3.85234 4.02605 4.25182 4.50109 4.86208 5.40339 5.62825 6.07166 7.25632
265.5175 0.00025 4.73821 3.94755 3.83296 3.25086 3.19971 3.1785 3.09209 3.11374 3.07357 3.06316 3.03847 3.03593 3.0968 3.11227 3.10116 2.95957 2.92114 2.97354 2.99079 2.94977 3.00123 3.05195 3.07815 3.13382 3.10334 3.12431 3.12539 3.16841 3.21255 3.32329 3.20565 3.16021 3.02711 3.01606 3.12707 3.18574 3.1736 3.16927 3.08111 3.07159 2.94808 2.87538 2.93441 2.98769 3.04903 3.01356 3.06683 3.17841 3.36301 3.51983 3.558 3.59542 3.4466 3.37095 3.3642 3.23186 3.13972 3.3285 3.51664 3.66338 3.73064 3.71993 3.64259 3.60801 3.65422 3.67258 3.57278 3.53886 3.46239 3.45358 3.57342 3.69093 3.74371 3.76094 3.92365 4.11239 4.25442 4.67218 5.15134 5.6646 6.51277 6.94592 7.21843 7.43005 7.54813 7.24887 6.08034 5.2162 4.85635 4.16387 3.73015 3.84815 4.0162 4.23686 4.48911 4.84423 5.39048 5.61024 6.01336 7.21139
265.52 0.00025 4.6276 3.89176 3.78839 3.25793 3.23348 3.19854 3.09066 3.08932 3.06215 3.04637 3.04468 3.04024 3.09682 3.1166 3.11615 2.97554 2.9346 2.9891 3.00404 2.94436 3.01096 3.05271 3.08982 3.12571 3.09544 3.1238 3.10648 3.14969 3.19573 3.30357 3.18671 3.14975 3.01758 3.002 3.11447 3.17514 3.184 3.18092 3.08928 3.07871 2.95614 2.87755 2.92378 2.97266 3.0372 3.00883 3.0597 3.16761 3.35132 3.53421 3.56419 3.60262 3.46193 3.3891 3.37352 3.23881 3.13755 3.29646 3.49378 3.6404 3.7347 3.7196 3.63641 3.59974 3.63066 3.6637 3.57758 3.5342 3.46025 3.44677 3.56247 3.69303 3.75232 3.76353 3.92602 4.11019 4.24316 4.63807 5.13968 5.61314 6.45118 6.9329 7.21402 7.40696 7.51944 7.29143 6.17594 5.22952 4.88176 4.22091 3.74942 3.84449 4.00687 4.22222 4.47724 4.82668 5.37758 5.5933 5.95557 7.16324
265.5225 0.00025 4.52485 3.8511 3.73435 3.27184 3.27306 3.2175 3.08969 3.06397 3.0459 3.03335 3.04775 3.0425 3.09526 3.11789 3.13129 2.99464 2.94845 3.0055 3.01418 2.94199 3.02272 3.05212 3.10574 3.11314 3.0879 3.12173 3.08742 3.13262 3.17992 3.28214 3.16818 3.13789 3.00925 2.99063 3.10359 3.1613 3.18976 3.19261 3.09686 3.08542 2.96463 2.88152 2.9145 2.95922 3.02538 3.00108 3.05179 3.15739 3.33748 3.54637 3.57043 3.60739 3.47619 3.40878 3.38337 3.24578 3.13976 3.26625 3.47157 3.61551 3.73683 3.72126 3.63066 3.59282 3.60834 3.65071 3.58185 3.52882 3.45825 3.44108 3.55078 3.69413 3.76044 3.7666 3.92898 4.10768 4.23465 4.60417 5.12453 5.57119 6.38601 6.91525 7.21131 7.3886 7.48827 7.32337 6.27216 5.24928 4.90233 4.278 3.77147 3.84149 3.99809 4.20793 4.46559 4.80939 5.36475 5.57746 5.89863 7.11208
265.525 0.00025 4.43407 3.81993 3.68504 3.29035 3.31551 3.23346 3.0907 3.04005 3.0263 3.02449 3.04617 3.04299 3.09192 3.11694 3.14511 3.01628 2.96195 3.02255 3.0205 2.94395 3.0362 3.05055 3.12406 3.09763 3.08029 3.11745 3.06964 3.11732 3.16535 3.26045 3.15001 3.12411 3.0021 2.98114 3.09477 3.14603 3.18984 3.20379 3.10504 3.09123 2.97338 2.88653 2.9072 2.94726 3.01413 2.9907 3.04245 3.14836 3.32161 3.55514 3.57737 3.61005 3.48936 3.42923 3.39395 3.25286 3.14551 3.23882 3.44985 3.58984 3.7362 3.72454 3.62539 3.58662 3.58769 3.63439 3.58473 3.52311 3.45637 3.43667 3.53872 3.6941 3.7678 3.77005 3.93245 4.10467 4.22826 4.57198 5.10524 5.53835 6.31836 6.89232 7.20808 7.37545 7.45766 7.34653 6.36799 5.27635 4.919 4.33421 3.7963 3.83923 3.98984 4.19393 4.45414 4.79244 5.35196 5.56267 5.84268 7.05846
265.5275 0.00025 4.35695 3.78778 3.64889 3.31536 3.35546 3.24524 3.09464 3.01867 3.00582 3.01865 3.03978 3.04187 3.08683 3.11507 3.15618 3.03988 2.97417 3.03992 3.02378 2.95033 3.0503 3.04883 3.14209 3.08076 3.07323 3.11046 3.05448 3.10395 3.15223 3.23968 3.13176 3.10809 2.9963 2.973 3.08792 3.13034 3.18384 3.21333 3.11452 3.0955 2.98211 2.8918 2.90243 2.93694 3.00374 2.97837 3.03105 3.14005 3.3041 3.55991 3.58508 3.6109 3.50121 3.4498 3.40577 3.26026 3.15356 3.21498 3.42829 3.56453 3.73242 3.7291 3.62116 3.58077 3.56895 3.61572 3.58546 3.51748 3.4544 3.43342 3.52651 3.69273 3.77422 3.774 3.93642 4.10121 4.22335 4.5421 5.08077 5.51397 6.25008 6.86418 7.20343 7.36661 7.42798 7.36079 6.46159 5.31083 4.93232 4.38922 3.82398 3.83778 3.98207 4.18026 4.44286 4.77573 5.33934 5.54904 5.78795 7.00323
265.53 0.00025 4.2868 3.75664 3.62372 3.3527 3.38517 3.25369 3.10237 3.00135 2.98736 3.01333 3.02997 3.0393 3.08018 3.11393 3.16316 3.06453 2.98476 3.0571 3.02593 2.96031 3.0637 3.04778 3.15685 3.06425 3.06691 3.10048 3.04364 3.09198 3.14086 3.22047 3.11319 3.08995 2.99173 2.96573 3.08292 3.11484 3.1725 3.22012 3.12545 3.09825 2.9908 2.89686 2.90039 2.9283 2.99471 2.96529 3.01779 3.13183 3.28554 3.56043 3.59337 3.61069 3.51175 3.46981 3.41867 3.2681 3.16264 3.19537 3.40659 3.54006 3.72522 3.73402 3.61849 3.57505 3.55226 3.59589 3.58344 3.51205 3.45221 3.43111 3.51473 3.6899 3.77962 3.7783 3.94079 4.09739 4.21946 4.5154 5.05144 5.49644 6.18272 6.83151 7.19544 7.36127 7.40117 7.36715 6.55115 5.35314 4.94319 4.44243 3.85441 3.83728 3.97474 4.16686 4.43179 4.75936 5.32689 5.5364 5.7343 6.94628
265.5325 0.00025 4.22576 3.72686 3.59919 3.40757 3.39965 3.25912 3.11339 2.98855 2.97281 3.00754 3.01824 3.03546 3.07204 3.11474 3.16503 3.0893 2.99395 3.07313 3.02921 2.97207 3.07604 3.04792 3.16578 3.04997 3.06164 3.08748 3.03772 3.08122 3.13132 3.20303 3.09455 3.07042 2.98784 2.95933 3.07994 3.09977 3.15756 3.22306 3.13745 3.0998 2.99891 2.90121 2.90101 2.92137 2.98674 2.95238 3.00298 3.12297 3.26681 3.55666 3.60173 3.61062 3.52097 3.48834 3.43263 3.27697 3.17148 3.18074 3.38465 3.51706 3.71505 3.73874 3.61756 3.56912 3.53741 3.57585 3.57804 3.50685 3.44985 3.42965 3.50371 3.68566 3.78375 3.7829 3.94557 4.09339 4.21579 4.49224 5.01773 5.48331 6.11758 6.79508 7.18328 7.35927 7.37753 7.36659 6.63563 5.40285 4.95207 4.49353 3.88753 3.83782 3.9678 4.15383 4.42094 4.74322 5.31449 5.52474 5.68193 6.88715
265.535 0.00025 4.17442 3.69642 3.57505 3.47749 3.39888 3.26143 3.12661 2.98075 2.96325 3.00087 3.0057 3.02966 3.06227 3.11786 3.16224 3.11338 3.00341 3.08661 3.03558 2.98406 3.08794 3.049 3.16701 3.03918 3.0579 3.0725 3.03685 3.07142 3.12345 3.18729 3.07608 3.05024 2.98437 2.95386 3.07829 3.08494 3.14093 3.22109 3.14986 3.10086 3.00596 2.90463 2.90371 2.91682 2.97935 2.94018 2.98704 3.11275 3.24888 3.54894 3.60913 3.61165 3.5291 3.50477 3.44728 3.28752 3.17918 3.17128 3.36258 3.49578 3.70254 3.74242 3.61864 3.56291 3.52434 3.55649 3.56904 3.50182 3.44725 3.42909 3.49371 3.67989 3.78673 3.78786 3.95086 4.0894 4.21189 4.47241 4.98019 5.47253 6.05635 6.75617 7.16662 7.35912 7.35708 7.35944 6.71394 5.46007 4.95956 4.54216 3.92321 3.83965 3.96131 4.1411 4.41032 4.72737 5.3022 5.51404 5.63092 6.82665
265.5375 0.00025 4.13011 3.66219 3.55734 3.55085 3.38744 3.26114 3.14055 2.97622 2.95862 2.99407 2.99322 3.02208 3.05056 3.12245 3.15568 3.13477 3.01549 3.09661 3.04646 2.9955 3.10001 3.05048 3.15996 3.03243 3.05618 3.05656 3.04055 3.06258 3.11696 3.17315 3.05813 3.03005 2.98101 2.94986 3.0776 3.07029 3.12427 3.21379 3.1614 3.10214 3.0115 2.90715 2.90791 2.9146 2.972 2.92933 2.97074 3.10114 3.23199 3.53749 3.61484 3.6146 3.53663 3.51845 3.46205 3.30043 3.1852 3.16718 3.34036 3.476 3.68816 3.74421 3.62171 3.55649 3.51284 3.53836 3.55654 3.49697 3.44418 3.42923 3.48493 3.67265 3.78846 3.79302 3.95637 4.08547 4.20719 4.45576 4.94025 5.46182 5.99937 6.71535 7.14429 7.35986 7.34075 7.3483 6.7848 5.52352 4.96614 4.5883 3.96131 3.84287 3.9553 4.12877 4.39989 4.71166 5.28994 5.50429 5.58125 6.76486
265.54 0.00025 4.09311 3.62865 3.55842 3.61011 3.37297 3.2578 3.15322 2.97431 2.95822 2.9882 2.98144 3.0135 3.03697 3.12756 3.14652 3.15131 3.03219 3.10287 3.06228 3.0065 3.11209 3.05157 3.14495 3.02966 3.05711 3.04099 3.04806 3.05523 3.11133 3.15989 3.04093 3.01046 2.97784 2.94798 3.07695 3.05572 3.10845 3.20171 3.17107 3.10398 3.01483 2.90841 2.91333 2.91511 2.96452 2.92025 2.95442 3.08817 3.21656 3.52327 3.61736 3.6191 3.54406 3.52939 3.47631 3.31582 3.18936 3.16805 3.31851 3.45774 3.6728 3.74341 3.6266 3.54977 3.50251 3.52177 3.54096 3.49212 3.44047 3.43002 3.47757 3.66406 3.78884 3.79833 3.96207 4.08192 4.20146 4.44223 4.89948 5.44961 5.94762 6.67337 7.11694 7.36045 7.32882 7.33438 6.84737 5.59299 4.97305 4.63159 4.00146 3.84757 3.9497 4.11676 4.38967 4.6961 5.27773 5.49564 5.53301 6.70184
265.5425 0.00025 4.06189 3.59804 3.58286 3.64192 3.36159 3.25096 3.16219 2.97462 2.96108 2.98386 2.97097 3.00458 3.02201 3.13133 3.1362 3.16151 3.05392 3.10605 3.08251 3.01769 3.12303 3.05175 3.12353 3.02926 3.06036 3.02713 3.05837 3.04996 3.10581 3.14695 3.02496 2.99149 2.97485 2.94853 3.07536 3.04137 3.09384 3.18622 3.1777 3.10662 3.01562 2.90854 2.91948 2.91808 2.95688 2.91318 2.93913 3.07386 3.20252 3.50702 3.6163 3.62571 3.55218 3.53754 3.48968 3.33389 3.19191 3.17323 3.29745 3.44066 3.65712 3.73977 3.63309 3.54318 3.49331 3.50694 3.52295 3.48727 3.4362 3.43127 3.47181 3.65435 3.78789 3.80376 3.96784 4.07882 4.19437 4.43086 4.85857 5.43442 5.90119 6.63074 7.0855 7.35936 7.32038 7.31894 6.90088 5.66674 4.98062 4.67199 4.04364 3.85395 3.94453 4.1051 4.37974 4.68083 5.26562 5.48799 5.48638 6.6376
265.545 0.00025 4.03528 3.57883 3.62572 3.64879 3.35705 3.24065 3.16737 2.9773 2.966 2.98149 2.96252 2.99593 3.00627 3.13176 3.12569 3.16458 3.08005 3.10704 3.10649 3.03016 3.13137 3.05049 3.09802 3.0294 3.06527 3.01628 3.0703 3.04728 3.10052 3.13412 3.01024 2.97359 2.97206 2.95179 3.07193 3.02726 3.08017 3.16884 3.18016 3.10988 3.01416 2.90759 2.92587 2.92304 2.94933 2.90805 2.92547 3.05858 3.18955 3.48958 3.61144 3.63303 3.56138 3.54268 3.50156 3.35388 3.1935 3.18179 3.27782 3.42464 3.64152 3.73301 3.64032 3.53681 3.48498 3.49386 3.50324 3.48195 3.43124 3.4327 3.46778 3.64368 3.78556 3.80918 3.97355 4.07616 4.18589 4.42116 4.819 5.4152 5.85982 6.58754 7.05065 7.35476 7.31565 7.30293 6.94592 5.74394 4.98962 4.70898 4.08741 3.86212 3.93985 4.09372 4.36993 4.66575 5.25349 5.48127 5.44133 6.57225
265.5475 0.00025 4.01224 3.57578 3.67442 3.64081 3.35889 3.22716 3.17018 2.98252 2.97145 2.98155 2.95569 2.98782 2.99086 3.1274 3.11554 3.16184 3.10956 3.10662 3.1325 3.04487 3.13646 3.04771 3.07116 3.02816 3.07068 3.00911 3.08287 3.04773 3.09545 3.12111 2.99692 2.95691 2.96929 2.95756 3.06553 3.01367 3.06742 3.15073 3.17755 3.11333 3.01111 2.90556 2.93198 2.92954 2.9422 2.90516 2.91406 3.04211 3.17696 3.47084 3.60323 3.64 3.57251 3.54551 3.51189 3.37507 3.19525 3.19242 3.26008 3.40948 3.62632 3.72342 3.64764 3.53092 3.47738 3.4824 3.48274 3.47601 3.42563 3.43402 3.46535 3.63237 3.78189 3.81443 3.97902 4.07401 4.17614 4.41241 4.78169 5.39173 5.82341 6.54426 7.01418 7.34628 7.31439 7.28614 6.98307 5.82357 5.00083 4.74214 4.13299 3.87233 3.93572 4.08263 4.36033 4.6508 5.24125 5.47545 5.3978 6.50599
265.55 0.00025 3.98909 3.58501 3.72022 3.62372 3.36388 3.21265 3.17149 2.99024 2.97672 2.98407 2.95012 2.97991 2.97653 3.11696 3.10607 3.15539 3.1404 3.10655 3.1587 3.06235 3.13775 3.0436 3.04545 3.02387 3.07515 3.00587 3.09547 3.05132 3.09067 3.1077 2.98446 2.94189 2.96675 2.9658 3.05559 3.00044 3.05543 3.13298 3.16984 3.11628 3.00756 2.90283 2.93765 2.93741 2.93633 2.90392 2.90503 3.02511 3.16497 3.45215 3.59263 3.64493 3.58546 3.54641 3.52048 3.39598 3.19818 3.20395 3.24495 3.39499 3.61159 3.71126 3.65406 3.52575 3.47044 3.47244 3.4622 3.46923 3.41953 3.43514 3.46449 3.62062 3.77685 3.81949 3.98427 4.07248 4.16533 4.40386 4.74729 5.3637 5.79087 6.50028 6.97717 7.33207 7.31664 7.2701 7.0136 5.90417 5.01566 4.77148 4.17956 3.88449 3.9321 4.07177 4.35083 4.63602 5.22899 5.47065 5.35597 6.43934
265.5525 0.00025 3.96684 3.6059 3.76407 3.59898 3.36776 3.20074 3.17254 2.99947 2.98134 2.98893 2.94416 2.97148 2.96423 3.10069 3.09788 3.14686 3.17022 3.10914 3.18265 3.08218 3.13561 3.03902 3.02285 3.01648 3.07785 3.00619 3.10736 3.0578 3.08598 3.09425 2.97302 2.92922 2.96438 2.97562 3.04203 2.98765 3.04414 3.11605 3.1574 3.118 3.00425 2.8996 2.94245 2.94621 2.9319 2.90431 2.89865 3.00851 3.15323 3.43312 3.58041 3.6466 3.60014 3.54658 3.52746 3.41572 3.20321 3.21516 3.23279 3.3811 3.59723 3.69702 3.65922 3.5214 3.46395 3.46372 3.44227 3.46159 3.41292 3.43596 3.46497 3.60877 3.77052 3.8242 3.98931 4.07143 4.15382 4.39461 4.71591 5.33162 5.76154 6.45567 6.94141 7.31154 7.32119 7.25399 7.03816 5.98421 5.03431 4.79689 4.22719 3.89882 3.92915 4.06112 4.34151 4.62159 5.21672 5.46683 5.31581 6.37232
265.555 0.00025 3.94614 3.63728 3.8105 3.56743 3.36737 3.19363 3.17391 3.00914 2.98549 2.99555 2.93712 2.96216 2.95462 3.07918 3.09072 3.13733 3.19593 3.11683 3.20325 3.10353 3.13072 3.03428 3.00427 3.00635 3.07865 3.00942 3.11853 3.06659 3.0817 3.08082 2.96234 2.91937 2.9627 2.98625 3.02598 2.97502 3.03346 3.10014 3.14097 3.11804 3.00203 2.89629 2.94627 2.95544 2.9295 2.90617 2.8949 2.99305 3.14193 3.41369 3.56783 3.64434 3.61546 3.54712 3.53277 3.43312 3.21084 3.22529 3.22406 3.36785 3.58312 3.68106 3.66282 3.51825 3.45791 3.45612 3.42361 3.45294 3.40581 3.43627 3.46668 3.59714 3.76307 3.82831 3.99397 4.07064 4.142 4.3842 4.68775 5.29576 5.73386 6.40975 6.90766 7.28421 7.32793 7.23827 7.05793 6.06207 5.05729 4.81834 4.27578 3.91542 3.9268 4.0507 4.33233 4.60738 5.2043 5.46386 5.27736 6.30542
265.5575 0.00025 3.93386 3.68739 3.85353 3.53265 3.36158 3.19049 3.17726 3.01881 2.98946 3.00203 2.92785 2.95198 2.94792 3.05408 3.08365 3.12856 3.21386 3.13088 3.22086 3.12449 3.12418 3.02972 2.98994 2.9949 3.07793 3.0143 3.12878 3.07711 3.0778 3.06746 2.95219 2.91278 2.9623 2.99607 3.00755 2.96216 3.02326 3.08499 3.1213 3.11566 3.00131 2.8934 2.94905 2.96439 2.92939 2.90885 2.89329 2.97951 3.13082 3.39388 3.55537 3.63787 3.63015 3.54906 3.53679 3.4475 3.22129 3.2337 3.21884 3.35541 3.56904 3.66392 3.66476 3.51623 3.45215 3.44944 3.40656 3.44331 3.39835 3.43617 3.4692 3.5859 3.75457 3.83184 3.99849 4.07013 4.13022 4.37212 4.66285 5.2572 5.70728 6.3625 6.87709 7.25015 7.33577 7.22301 7.07351 6.13732 5.08501 4.83586 4.32481 3.93428 3.9252 4.0405 4.32326 4.59343 5.19168 5.46171 5.24058 6.23807
265.56 0.00025 3.92969 3.75597 3.88205 3.49924 3.35223 3.19054 3.18328 3.02848 2.99377 3.00713 2.91572 2.9415 2.94373 3.02641 3.07472 3.1217 3.22199 3.15116 3.23716 3.14391 3.11723 3.02478 2.97999 2.98307 3.07633 3.0196 3.1377 3.08883 3.07484 3.05456 2.94281 2.90952 2.96356 3.00398 2.9882 2.94886 3.01335 3.07058 3.09958 3.1103 3.00215 2.89155 2.9509 2.97257 2.93147 2.91245 2.89327 2.96834 3.12 3.37343 3.54352 3.62823 3.64258 3.55314 3.53986 3.45868 3.23446 3.24031 3.217 3.3439 3.55481 3.64581 3.66487 3.51518 3.4467 3.44344 3.39154 3.43273 3.3906 3.43548 3.47235 3.57535 3.74519 3.8345 4.00295 4.07003 4.11901 4.35797 4.64067 5.21669 5.681 6.31376 6.84924 7.20981 7.34439 7.20971 7.08528 6.20814 5.11777 4.8496 4.3735 3.95561 3.92443 4.03051 4.31419 4.57975 5.17891 5.4604 5.20557 6.17093
265.5625 0.00025 3.93581 3.84519 3.88973 3.46804 3.34385 3.19328 3.19276 3.0381 2.9986 3.00943 2.90023 2.93164 2.94169 2.9971 3.06347 3.11713 3.22169 3.17608 3.25258 3.16042 3.11125 3.01901 2.97462 2.97172 3.07424 3.02474 3.14517 3.10148 3.07316 3.04235 2.93427 2.9097 2.96656 3.00865 2.96858 2.93473 3.00329 3.05672 3.07722 3.10185 3.0042 2.89083 2.95193 2.97953 2.93543 2.9169 2.8946 2.96033 3.10993 3.35235 3.53198 3.61604 3.65079 3.5597 3.54238 3.46626 3.24989 3.24562 3.21844 3.33373 3.54014 3.62694 3.6633 3.51483 3.44139 3.43795 3.37885 3.42128 3.38259 3.43415 3.47596 3.56576 3.73522 3.83607 4.00717 4.07005 4.10866 4.3414 4.62032 5.17454 5.65354 6.26376 6.82469 7.16436 7.35245 7.19805 7.09254 6.27395 5.15563 4.86036 4.42166 3.9793 3.92453 4.02073 4.30516 4.56633 5.16584 5.45985 5.17244 6.10484
265.565 0.00025 3.95306 3.93374 3.86894 3.44061 3.33995 3.19779 3.20668 3.04767 3.00406 3.00865 2.88171 2.9224 2.94073 2.96717 3.05048 3.11409 3.21563 3.20365 3.26671 3.17386 3.1067 3.0125 2.97365 2.96106 3.0719 3.02931 3.15043 3.11454 3.07319 3.0314 2.92689 2.91326 2.97073 3.00926 2.9493 2.92 2.99288 3.04352 3.05553 3.08975 3.00712 2.89189 2.9522 2.98544 2.94101 2.92181 2.89694 2.95566 3.10073 3.33099 3.52055 3.6031 3.6537 3.56847 3.54492 3.47078 3.26678 3.25017 3.22268 3.32481 3.52467 3.60755 3.66019 3.51502 3.43619 3.43274 3.36859 3.40901 3.3746 3.43198 3.4797 3.55713 3.72471 3.83656 4.01116 4.07021 4.09942 4.32247 4.60141 5.13241 5.62488 6.21232 6.80227 7.11531 7.35873 7.18813 7.0948 6.33577 5.19896 4.8686 4.46873 4.00539 3.92555 4.01116 4.29611 4.55327 5.15247 5.46009 5.14101 6.03906
265.5675 0.00025 3.97378 4.00742 3.82685 3.41436 3.34078 3.20253 3.22357 3.05683 3.00972 3.00596 2.86159 2.91365 2.93956 2.93866 3.03664 3.11224 3.206 3.23163 3.28003 3.18532 3.10313 3.00594 2.97705 2.95096 3.06884 3.03325 3.15299 3.12811 3.07492 3.02228 2.92085 2.92011 2.97583 3.0052 2.93081 2.90491 2.98175 3.03066 3.03541 3.07392 3.01024 2.89476 2.95157 2.99053 2.94769 2.92703 2.90007 2.95437 3.09212 3.3101 3.50882 3.59036 3.65081 3.57898 3.54833 3.4726 3.28434 3.25442 3.22923 3.31747 3.50847 3.58787 3.65562 3.51548 3.43119 3.42774 3.36085 3.39614 3.36667 3.42883 3.48308 3.54956 3.71388 3.83586 4.01488 4.07057 4.09152 4.30156 4.58312 5.09083 5.59461 6.1598 6.78056 7.06391 7.36154 7.18171 7.09324 6.39319 5.24675 4.87486 4.514 4.03394 3.92762 4.00185 4.28699 4.54048 5.13886 5.46115 5.11139 5.97407
265.57 0.00025 3.99379 4.03988 3.77844 3.38528 3.34599 3.20656 3.24034 3.06444 3.01537 3.00259 2.84199 2.90487 2.93647 2.91299 3.02177 3.11101 3.19411 3.2577 3.29179 3.19559 3.09881 3.00024 2.98404 2.94163 3.06454 3.03697 3.15231 3.14183 3.07826 3.01525 2.91651 2.92977 2.9812 2.99646 2.91328 2.88953 2.96963 3.01826 3.01735 3.05534 3.0128 2.89975 2.95052 2.99489 2.955 2.93246 2.90379 2.9562 3.08412 3.29024 3.49633 3.57866 3.64286 3.58975 3.55279 3.47269 3.30175 3.25888 3.23737 3.3118 3.49154 3.56814 3.64962 3.51612 3.42648 3.42294 3.35565 3.3829 3.35905 3.42484 3.48597 3.54321 3.70289 3.83391 4.01823 4.07105 4.0849 4.27889 4.56459 5.05037 5.56239 6.10662 6.75832 7.01149 7.35915 7.17879 7.08815 6.44764 5.29871 4.87981 4.55641 4.06477 3.93084 3.99282 4.27781 4.52798 5.12484 5.46288 5.08361 5.91015
265.5725 0.00025 4.009 4.04234 3.73993 3.35164 3.35219 3.20887 3.25388 3.07005 3.02195 2.9997 2.82517 2.89612 2.93009 2.89158 3.00662 3.10898 3.18229 3.28048 3.30173 3.20531 3.09225 2.99674 2.99368 2.93361 3.05851 3.04047 3.14812 3.15558 3.08313 3.01065 2.91401 2.94131 2.98618 2.98369 2.89678 2.87434 2.95641 3.0063 3.00108 3.03519 3.01361 2.90668 2.94926 2.99887 2.96296 2.93852 2.90821 2.96066 3.07693 3.27216 3.48278 3.56822 3.63134 3.59945 3.55806 3.47202 3.31809 3.26416 3.24664 3.30798 3.47392 3.54822 3.64204 3.51695 3.42204 3.41809 3.35266 3.36957 3.35188 3.42007 3.48808 3.53813 3.69212 3.83076 4.02099 4.07178 4.07978 4.25494 4.54472 5.01124 5.5277 6.05301 6.7344 6.96038 7.35085 7.18023 7.07965 6.49775 5.35368 4.88408 4.59545 4.0979 3.93531 3.9841 4.26854 4.51584 5.11043 5.46529 5.05766 5.84756
265.575 0.00025 4.01741 4.02066 3.71785 3.31708 3.35337 3.21004 3.26184 3.0723 3.03034 2.99833 2.8124 2.88729 2.91997 2.87507 2.99217 3.10285 3.17218 3.29901 3.30962 3.21452 3.08379 2.99629 3.00409 2.92778 3.05003 3.04345 3.14112 3.16879 3.08922 3.0088 2.91366 2.954 2.99037 2.96814 2.881 2.85971 2.94249 2.99465 2.9863 3.0148 3.01189 2.91549 2.94798 3.0023 2.97142 2.94534 2.91317 2.96687 3.07071 3.25655 3.46817 3.55889 3.61732 3.60673 3.56427 3.47122 3.33263 3.27056 3.25683 3.30615 3.45608 3.52783 3.63293 3.51762 3.41781 3.41316 3.35171 3.3567 3.34526 3.41457 3.48923 3.53448 3.68178 3.82647 4.02303 4.07269 4.07605 4.23063 4.52322 4.97401 5.49155 5.99953 6.70744 6.9117 7.33446 7.18612 7.06915 6.54352 5.41124 4.88938 4.63082 4.13323 3.94116 3.97575 4.25913 4.50404 5.09564 5.46822 5.03349 5.78621
265.5775 0.00025 4.01714 3.98006 3.70781 3.28876 3.344 3.20998 3.26315 3.07263 3.04221 2.99835 2.80413 2.87839 2.90635 2.8634 2.97963 3.09065 3.16422 3.31336 3.31466 3.22238 3.07574 2.99852 3.01331 2.9249 3.0388 3.04542 3.13216 3.18035 3.09622 3.00931 2.91566 2.96708 2.99311 2.95089 2.86525 2.84594 2.92799 2.98311 2.97231 2.9953 3.0069 2.92618 2.94737 3.00473 2.98006 2.95309 2.91878 2.97429 3.06575 3.2438 3.45258 3.55011 3.60234 3.61047 3.57098 3.47115 3.34529 3.27814 3.26714 3.30605 3.4384 3.50687 3.62253 3.51829 3.41397 3.40811 3.35231 3.34466 3.33924 3.4085 3.48916 3.5319 3.67185 3.82105 4.0244 4.07388 4.0735 4.20638 4.49946 4.93883 5.45368 5.94574 6.67553 6.86605 7.31007 7.19631 7.05741 6.58515 5.47097 4.8962 4.66194 4.17029 3.94835 3.96775 4.24953 4.49256 5.08038 5.47158 5.01111 5.72595
265.58 0.00025 4.01186 3.94422 3.70145 3.26978 3.32209 3.21004 3.25737 3.07256 3.05822 2.99869 2.80057 2.86986 2.89131 2.85631 2.96949 3.07315 3.15761 3.32384 3.31524 3.22847 3.07093 3.00214 3.02033 2.92558 3.02456 3.04582 3.12299 3.18926 3.10428 3.01196 2.9202 2.97982 2.99442 2.93371 2.84899 2.83315 2.91335 2.97172 2.95901 2.97746 2.99849 2.9383 2.94799 3.00576 2.98859 2.96194 2.92489 2.98262 3.06245 3.23433 3.43606 3.54093 3.58766 3.61041 3.57768 3.47209 3.3561 3.28653 3.27756 3.30772 3.4214 3.4849 3.61102 3.5188 3.41054 3.40293 3.35413 3.33388 3.33376 3.40192 3.48774 3.53035 3.66258 3.81462 4.02493 4.07534 4.0719 4.18289 4.47325 4.9053 5.41449 5.89226 6.63882 6.8249 7.27681 7.21042 7.0441 6.62083 5.532 4.90549 4.68841 4.20863 3.95704 3.96017 4.23961 4.48133 5.06474 5.47539 4.99045 5.66722
265.5825 0.00025 4.00741 3.90845 3.69589 3.26064 3.29044 3.21108 3.24536 3.07379 3.07861 2.99876 2.80161 2.86213 2.87715 2.8541 2.96123 3.05291 3.1523 3.32977 3.30998 3.23289 3.07122 3.00639 3.02515 2.92963 3.00787 3.04371 3.11509 3.19522 3.11346 3.0162 2.92739 2.99162 2.99421 2.91733 2.83199 2.82145 2.89912 2.95999 2.9464 2.96131 2.98667 2.95084 2.95031 3.00527 2.9967 2.97151 2.93159 2.99092 3.0608 3.22812 3.41918 3.53035 3.57346 3.60685 3.58369 3.47451 3.36568 3.29552 3.28801 3.31091 3.40526 3.46173 3.59881 3.51884 3.40757 3.39755 3.35656 3.32476 3.32887 3.39502 3.48496 3.5299 3.6541 3.80737 4.02452 4.07712 4.07141 4.16067 4.44443 4.873 5.37444 5.8384 6.59598 6.78861 7.23634 7.2288 7.03064 6.65046 5.5936 4.91798 4.71044 4.24783 3.96735 3.95313 4.22951 4.47038 5.04866 5.47953 4.97152 5.61018
265.585 0.00025 4.01114 3.87622 3.6961 3.25742 3.25828 3.21292 3.22897 3.07678 3.10131 2.99783 2.80634 2.8559 2.86612 2.85639 2.95409 3.03153 3.14893 3.3305 3.29769 3.23538 3.07699 3.01118 3.02771 2.93633 2.9896 3.0386 3.10915 3.19768 3.12356 3.0216 2.93697 3.00163 2.99282 2.90179 2.81454 2.81073 2.88573 2.9479 2.93453 2.94667 2.97262 2.96267 2.95471 3.00344 3.00422 2.98158 2.93939 2.99939 3.06121 3.22487 3.40259 3.51779 3.55981 3.60053 3.58801 3.47856 3.37458 3.30501 3.29802 3.31513 3.39033 3.43763 3.58604 3.51843 3.40523 3.39196 3.35921 3.31755 3.32443 3.38807 3.48082 3.53042 3.64653 3.79931 4.02304 4.07911 4.07166 4.14008 4.41334 4.84136 5.33386 5.78491 6.54757 6.75642 7.18775 7.24952 7.01679 6.67406 5.65525 4.93351 4.72835 4.28731 3.97922 3.94661 4.21909 4.45967 5.03218 5.48387 4.95446 5.555
265.5875 0.00025 4.02426 3.85205 3.7041 3.25799 3.23447 3.2148 3.20968 3.0819 3.12399 2.99697 2.81453 2.85235 2.85947 2.86281 2.94783 3.00995 3.14786 3.32618 3.27871 3.23598 3.08761 3.01755 3.02851 2.94456 2.97068 3.03029 3.10518 3.19692 3.13429 3.02775 2.94849 3.00926 2.99118 2.8864 2.79749 2.801 2.87354 2.93538 2.92358 2.93308 2.95728 2.97259 2.96109 3.00063 3.01104 2.99173 2.94845 3.00745 3.06356 3.22433 3.38689 3.50326 3.54639 3.5927 3.58982 3.4841 3.38274 3.31446 3.30792 3.3201 3.37694 3.41296 3.57254 3.51732 3.4035 3.38604 3.3617 3.31263 3.32046 3.38114 3.4753 3.53168 3.64003 3.79071 4.02052 4.08129 4.0725 4.1215 4.38031 4.80952 5.29338 5.7319 6.49375 6.72782 7.13281 7.27123 7.0026 6.69223 5.7182 4.95332 4.74268 4.32622 3.99277 3.94071 4.20836 4.44923 5.01533 5.48836 4.93922 5.50138
265.59 0.00025 4.05035 3.83438 3.71944 3.25994 3.22272 3.21592 3.1894 3.08923 3.14375 2.99776 2.82552 2.85306 2.85813 2.8722 2.94293 2.98919 3.14754 3.31611 3.25498 3.2345 3.10173 3.02628 3.02845 2.95283 2.9525 3.0186 3.10236 3.19383 3.14519 3.03467 2.961 3.01413 2.98995 2.87065 2.78194 2.79227 2.86258 2.92249 2.91313 2.92039 2.94178 2.97904 2.96909 2.99756 3.01672 3.00125 2.9588 3.01486 3.0679 3.22547 3.37242 3.48687 3.53273 3.585 3.58902 3.49074 3.3906 3.32408 3.3175 3.32506 3.36514 3.38807 3.55806 3.51563 3.40246 3.37991 3.36364 3.31006 3.31698 3.37449 3.46845 3.53344 3.63447 3.78159 4.01708 4.08362 4.07383 4.10515 4.34591 4.7769 5.25352 5.67921 6.43439 6.70161 7.07245 7.2918 6.98956 6.70555 5.78025 4.97687 4.75437 4.3642 4.00802 3.93555 4.19732 4.43904 4.99809 5.49287 4.92568 5.44937
265.5925 0.00025 4.08757 3.8258 3.74067 3.26378 3.22124 3.21512 3.17122 3.09939 3.15866 3.00164 2.83888 2.85866 2.86176 2.88217 2.93964 2.97214 3.14662 3.30011 3.23025 3.23043 3.11874 3.0375 3.02881 2.95965 2.93636 3.00414 3.09957 3.18901 3.15538 3.04266 2.97376 3.01593 2.9891 2.85442 2.76793 2.78442 2.85274 2.90958 2.90315 2.90839 2.92708 2.98114 2.97791 2.99492 3.02097 3.00973 2.9705 3.02163 3.07449 3.22804 3.35992 3.46889 3.51804 3.57783 3.58536 3.49812 3.39834 3.33395 3.32695 3.3294 3.35499 3.36381 3.54249 3.51322 3.40199 3.3736 3.36472 3.30976 3.314 3.36836 3.46037 3.53539 3.63 3.77229 4.01273 4.08597 4.07557 4.09096 4.31075 4.74309 5.21465 5.62694 6.37038 6.67633 7.00804 7.30903 6.97917 6.71514 5.84089 5.00399 4.76356 4.40055 4.02485 3.93119 4.186 4.42903 4.98042 5.49733 4.91393 5.39938