265.5025 0.00025 -0.0199473 -0.0485856 -0.0906222 -0.136793 -0.152043 -0.162558 -0.181047 -0.187182 -0.194106 -0.193302 -0.189275 -0.181042 -0.179603 -0.182687 -0.190688 -0.192507 -0.192381 -0.193862 -0.190366 -0.193498 -0.197208 -0.197259 -0.199346 -0.195473 -0.189208 -0.184945 -0.181805 -0.174935 -0.167024 -0.162636 -0.155402 -0.150754 -0.149171 -0.152818 -0.155025 -0.152589 -0.150817 -0.149609 -0.14857 -0.146945 -0.151259 -0.154076 -0.149727 -0.14598 -0.14299 -0.136325 -0.129319 -0.122352 -0.117074 -0.112785 -0.109985 -0.110137 -0.108509 -0.106396 -0.105601 -0.105644 -0.105814 -0.104978 -0.106062 -0.104937 -0.102166 -0.101555 -0.102064 -0.102018 -0.101198 -0.101129 -0.099931 -0.0983721 -0.0977458 -0.0940399 -0.0897131 -0.0878081 -0.0855295 -0.0830509 -0.0795622 -0.0769866 -0.0750418 -0.0719284 -0.0700446 -0.0687455 -0.067928 -0.0667913 -0.0647056 -0.0632199 -0.0615473 -0.0589903 -0.0563109 -0.0545704 -0.0531923 -0.0516748 -0.0508187 -0.0495474 -0.0484564 -0.0474345 -0.0467202 -0.0456084 -0.0449434 -0.0430682 -0.0416787 -0.0384011
265.505 0.00025 0.0702478 0.0417839 0.000140309 -0.0458651 -0.0625913 -0.0725573 -0.0911661 -0.0979801 -0.104575 -0.104817 -0.100511 -0.0924951 -0.0913716 -0.094791 -0.10265 -0.104161 -0.104183 -0.105973 -0.102628 -0.105247 -0.108841 -0.109487 -0.111957 -0.108068 -0.101815 -0.0973888 -0.0939448 -0.0869158 -0.0790605 -0.0750476 -0.068169 -0.0633939 -0.0616871 -0.065394 -0.0672755 -0.0648638 -0.0631744 -0.0620308 -0.0610238 -0.059557 -0.0637638 -0.0663811 -0.0622077 -0.0584995 -0.0557145 -0.0491165 -0.0418666 -0.0347906 -0.0294717 -0.0249651 -0.0220189 -0.0222064 -0.0206165 -0.018472 -0.0177864 -0.0177491 -0.0177827 -0.0169512 -0.0182706 -0.0173107 -0.0145528 -0.0138567 -0.01422 -0.0141969 -0.01334 -0.0133684 -0.0121738 -0.0105823 -0.00982724 -0.00624535 -0.00200274 -0.000147446 0.00208373 0.00458123 0.00809475 0.0106549 0.0125128 0.0156561 0.0175952 0.0188975 0.019704 0.0207869 0.022846 0.0243482 0.0259692 0.028466 0.0312086 0.0329492 0.0343168 0.0358656 0.0367411 0.0380088 0.0391027 0.0401343 0.0408441 0.0419688 0.0426384 0.0445127 0.0459095 0.0491865
265.5075 0.00025 0.0352745 0.00714901 -0.0347234 -0.0801689 -0.0977096 -0.107903 -0.125848 -0.132906 -0.13912 -0.139558 -0.134996 -0.127105 -0.126353 -0.130026 -0.137849 -0.139538 -0.13975 -0.141549 -0.13801 -0.140146 -0.143825 -0.144631 -0.14717 -0.143205 -0.136943 -0.132166 -0.128356 -0.121076 -0.113119 -0.109467 -0.102594 -0.0974404 -0.0959738 -0.0996755 -0.101253 -0.0989864 -0.0971624 -0.096034 -0.0947396 -0.0936882 -0.0979391 -0.100446 -0.0967344 -0.0932397 -0.0904934 -0.0841708 -0.0766636 -0.0696174 -0.0643675 -0.0597216 -0.0567162 -0.0569897 -0.0554721 -0.0532949 -0.05264 -0.0524899 -0.0525146 -0.0517767 -0.0533372 -0.0523802 -0.0496428 -0.0488207 -0.049068 -0.0490129 -0.0481778 -0.0482214 -0.0471117 -0.0453688 -0.0444709 -0.0409299 -0.0367436 -0.0349128 -0.0326921 -0.0302105 -0.0267223 -0.0240771 -0.0222474 -0.0191574 -0.0170962 -0.0157447 -0.0149904 -0.0139129 -0.0118381 -0.0103329 -0.00875395 -0.00627674 -0.00347206 -0.0017259 -0.000385232 0.00120767 0.00210803 0.00338083 0.00449126 0.00551621 0.00623231 0.00735069 0.00801392 0.00989882 0.0113017 0.0145836
265.51 0.00025 -0.112753 -0.140731 -0.182449 -0.227515 -0.245923 -0.25498 -0.272652 -0.279554 -0.285309 -0.285579 -0.280754 -0.27258 -0.271804 -0.275567 -0.283386 -0.284926 -0.284948 -0.286427 -0.282981 -0.284635 -0.288311 -0.289454 -0.291733 -0.287714 -0.281514 -0.276402 -0.271911 -0.264492 -0.256349 -0.252837 -0.246231 -0.240814 -0.239421 -0.243074 -0.244481 -0.242182 -0.240455 -0.239379 -0.238176 -0.237134 -0.241213 -0.243489 -0.240125 -0.236713 -0.234146 -0.22785 -0.220035 -0.212993 -0.207797 -0.203025 -0.199733 -0.200083 -0.198722 -0.196497 -0.195705 -0.1954 -0.195142 -0.194253 -0.19589 -0.195069 -0.192315 -0.191481 -0.191571 -0.191499 -0.19066 -0.190781 -0.189654 -0.187816 -0.186891 -0.183405 -0.17927 -0.177482 -0.175247 -0.172775 -0.169205 -0.166515 -0.164713 -0.161616 -0.159484 -0.158093 -0.157334 -0.156314 -0.154242 -0.152733 -0.151223 -0.148802 -0.145964 -0.1442 -0.142863 -0.141245 -0.140304 -0.13902 -0.137901 -0.136887 -0.136162 -0.13504 -0.134378 -0.132491 -0.131092 -0.127815
265.5125 0.00025 -0.262753 -0.290328 -0.33219 -0.377738 -0.396975 -0.406291 -0.423651 -0.430988 -0.436151 -0.436656 -0.432406 -0.424504 -0.424154 -0.427893 -0.435667 -0.437066 -0.437267 -0.438642 -0.435259 -0.43704 -0.441099 -0.442654 -0.445046 -0.441202 -0.43496 -0.429545 -0.424765 -0.417348 -0.409178 -0.406015 -0.399594 -0.394186 -0.39301 -0.396294 -0.397398 -0.395116 -0.393236 -0.392307 -0.39112 -0.390479 -0.394746 -0.396938 -0.39385 -0.390429 -0.388122 -0.382158 -0.374148 -0.36706 -0.36186 -0.357059 -0.353772 -0.354294 -0.352944 -0.350742 -0.350043 -0.349702 -0.349359 -0.348506 -0.350377 -0.349755 -0.347122 -0.346122 -0.346144 -0.346186 -0.345266 -0.345512 -0.344379 -0.342511 -0.341522 -0.338111 -0.334077 -0.33231 -0.330122 -0.327755 -0.324184 -0.321456 -0.319663 -0.316529 -0.314369 -0.312938 -0.312197 -0.311228 -0.309171 -0.307653 -0.306228 -0.303838 -0.300965 -0.299161 -0.297828 -0.296204 -0.295248 -0.293965 -0.292848 -0.291843 -0.291121 -0.290007 -0.289355 -0.287471 -0.286089 -0.282804
265.515 0.00025 -0.351214 -0.378683 -0.420658 -0.465506 -0.486385 -0.495525 -0.511646 -0.518978 -0.523804 -0.52459 -0.520374 -0.512688 -0.512529 -0.51631 -0.524254 -0.525765 -0.526081 -0.527377 -0.523983 -0.525541 -0.529404 -0.53104 -0.533296 -0.529529 -0.523399 -0.517512 -0.51251 -0.505329 -0.497169 -0.494339 -0.488171 -0.482664 -0.481335 -0.48437 -0.485196 -0.482919 -0.481259 -0.48008 -0.479055 -0.478389 -0.482337 -0.484327 -0.481422 -0.478085 -0.47599 -0.470078 -0.461732 -0.454746 -0.449505 -0.44456 -0.440927 -0.441432 -0.440329 -0.438151 -0.437378 -0.436942 -0.436493 -0.435616 -0.437498 -0.436768 -0.434131 -0.433044 -0.432921 -0.432906 -0.431982 -0.432373 -0.431247 -0.429331 -0.42828 -0.424854 -0.420867 -0.419203 -0.417014 -0.414665 -0.411069 -0.408246 -0.40652 -0.40339 -0.401204 -0.39972 -0.398981 -0.398059 -0.396039 -0.394536 -0.393142 -0.390784 -0.387843 -0.386011 -0.384718 -0.383087 -0.382102 -0.3808 -0.379666 -0.378663 -0.377943 -0.376816 -0.376171 -0.374289 -0.37291 -0.369627
265.5175 0.00025 -0.421941 -0.449047 -0.490653 -0.535307 -0.556776 -0.566748 -0.581718 -0.588991 -0.593542 -0.594453 -0.590765 -0.583502 -0.583187 -0.586708 -0.594919 -0.596334 -0.596558 -0.597369 -0.594116 -0.595314 -0.599441 -0.600862 -0.60296 -0.599458 -0.593533 -0.587327 -0.581896 -0.574629 -0.566444 -0.563971 -0.558028 -0.552321 -0.551387 -0.554178 -0.55479 -0.552767 -0.551232 -0.550433 -0.549358 -0.549044 -0.552995 -0.554841 -0.5524 -0.549027 -0.54688 -0.541221 -0.532592 -0.5255 -0.520332 -0.515316 -0.511658 -0.512214 -0.511222 -0.509007 -0.508263 -0.507692 -0.507215 -0.506273 -0.508296 -0.507731 -0.505091 -0.503895 -0.503621 -0.503646 -0.502725 -0.503159 -0.502107 -0.500101 -0.498993 -0.495651 -0.491754 -0.490178 -0.487945 -0.48568 -0.482049 -0.479216 -0.477521 -0.474454 -0.472181 -0.470682 -0.469907 -0.46905 -0.467058 -0.465539 -0.464181 -0.461885 -0.458902 -0.457017 -0.455748 -0.454108 -0.453082 -0.451781 -0.450635 -0.44962 -0.448892 -0.447764 -0.447126 -0.445237 -0.443858 -0.440575
265.52 0.00025 -0.390521 -0.417421 -0.459468 -0.50353 -0.525115 -0.535388 -0.549293 -0.556868 -0.561831 -0.562776 -0.559322 -0.552195 -0.552074 -0.555777 -0.564413 -0.565749 -0.566304 -0.567089 -0.5638 -0.565002 -0.569098 -0.570333 -0.572287 -0.569026 -0.56307 -0.556506 -0.550419 -0.543105 -0.534833 -0.532543 -0.526618 -0.52084 -0.520038 -0.522443 -0.52269 -0.520585 -0.519048 -0.518411 -0.517294 -0.516986 -0.520856 -0.522592 -0.520295 -0.516839 -0.514861 -0.509261 -0.500398 -0.493313 -0.488084 -0.483042 -0.479047 -0.479681 -0.47896 -0.476754 -0.475824 -0.475304 -0.474617 -0.47361 -0.475687 -0.475253 -0.472707 -0.471441 -0.471074 -0.471136 -0.470204 -0.470786 -0.469746 -0.467628 -0.466511 -0.463171 -0.459336 -0.457748 -0.455545 -0.453243 -0.449558 -0.446673 -0.444948 -0.441938 -0.439648 -0.438056 -0.437241 -0.436463 -0.434532 -0.432993 -0.431663 -0.429425 -0.426407 -0.424455 -0.423197 -0.421564 -0.420523 -0.41921 -0.418061 -0.417038 -0.416306 -0.415171 -0.414536 -0.412648 -0.411277 -0.407999
265.5225 0.00025 -0.31612 -0.34266 -0.384727 -0.428785 -0.451919 -0.461593 -0.474697 -0.482814 -0.487519 -0.488834 -0.485836 -0.479001 -0.478998 -0.482687 -0.491285 -0.49298 -0.493568 -0.493829 -0.490686 -0.491723 -0.495864 -0.496566 -0.498594 -0.495317 -0.489302 -0.48254 -0.47611 -0.468987 -0.460765 -0.458907 -0.453207 -0.447676 -0.446943 -0.448958 -0.448916 -0.447027 -0.445543 -0.445005 -0.444087 -0.443887 -0.447835 -0.449406 -0.4474 -0.44407 -0.442182 -0.436981 -0.427848 -0.420784 -0.415641 -0.410427 -0.406375 -0.407066 -0.4066 -0.404409 -0.403492 -0.402873 -0.402182 -0.401172 -0.403188 -0.402856 -0.400379 -0.399066 -0.398603 -0.398649 -0.397678 -0.398384 -0.397273 -0.395131 -0.393968 -0.390606 -0.386745 -0.38521 -0.383045 -0.380816 -0.377136 -0.37426 -0.372611 -0.36957 -0.367272 -0.365643 -0.364777 -0.364027 -0.362159 -0.360623 -0.359322 -0.357148 -0.354097 -0.35212 -0.350879 -0.34925 -0.348181 -0.346849 -0.345695 -0.344679 -0.343954 -0.342814 -0.342185 -0.340299 -0.338931 -0.335642
265.525 0.00025 -0.17052 -0.196757 -0.238596 -0.283159 -0.306537 -0.317267 -0.328725 -0.336427 -0.340854 -0.341759 -0.339071 -0.332364 -0.332638 -0.336665 -0.345407 -0.347335 -0.348041 -0.348129 -0.344881 -0.346176 -0.350432 -0.350894 -0.3528 -0.349944 -0.344305 -0.337502 -0.33016 -0.323353 -0.315165 -0.313299 -0.307573 -0.301954 -0.301303 -0.303019 -0.302901 -0.300882 -0.299519 -0.299221 -0.298456 -0.298326 -0.302274 -0.303872 -0.302062 -0.298815 -0.296911 -0.291693 -0.282292 -0.275014 -0.269731 -0.264482 -0.26023 -0.260734 -0.260471 -0.258317 -0.257268 -0.256611 -0.25583 -0.254773 -0.256842 -0.256521 -0.254228 -0.252824 -0.252331 -0.252295 -0.251274 -0.251987 -0.250926 -0.248713 -0.247537 -0.244206 -0.240367 -0.238889 -0.236756 -0.234571 -0.230874 -0.227967 -0.226315 -0.223247 -0.220934 -0.219272 -0.21837 -0.217666 -0.215866 -0.214314 -0.213052 -0.210954 -0.207894 -0.205865 -0.204626 -0.203003 -0.201901 -0.200548 -0.199382 -0.198374 -0.197639 -0.196498 -0.195879 -0.193992 -0.19263 -0.189346
265.5275 0.00025 0.0819631 0.0559358 0.0135894 -0.0310126 -0.0553084 -0.0663045 -0.0765204 -0.0837478 -0.0878254 -0.0884472 -0.0863137 -0.0798633 -0.0800961 -0.0839856 -0.0926673 -0.095126 -0.0956438 -0.0953319 -0.0922043 -0.0937421 -0.0980825 -0.0979123 -0.0998513 -0.0971287 -0.0915739 -0.0845434 -0.0765849 -0.0699102 -0.061731 -0.0601116 -0.0549408 -0.0494646 -0.0489865 -0.0501298 -0.0498444 -0.0478572 -0.0465931 -0.0463159 -0.0454728 -0.0453885 -0.0491854 -0.0506672 -0.0491128 -0.045742 -0.0440778 -0.039176 -0.0294673 -0.0221866 -0.0168943 -0.0115923 -0.00722704 -0.00767028 -0.0075848 -0.00568357 -0.00459132 -0.00383625 -0.00308932 -0.00190512 -0.00399129 -0.00375667 -0.00148803 -0.000129479 0.000548835 0.00044931 0.00148307 0.00067016 0.00172973 0.00397372 0.00515749 0.00845687 0.0121556 0.0135386 0.0157039 0.0178619 0.0215716 0.024594 0.0262082 0.0292522 0.0315793 0.0332479 0.0341892 0.0348363 0.0365776 0.038151 0.0393778 0.0413865 0.0444464 0.0465496 0.0478053 0.0494282 0.050581 0.0519433 0.0531168 0.0541268 0.0548661 0.0560083 0.0566237 0.0585072 0.0598635 0.0631472
265.53 0.00025 0.300434 0.274777 0.232107 0.187637 0.163409 0.151853 0.142945 0.135634 0.131574 0.130817 0.132493 0.138918 0.138844 0.134575 0.125463 0.122356 0.121617 0.12248 0.125477 0.123556 0.119127 0.119958 0.117954 0.120597 0.125726 0.132698 0.141209 0.147882 0.156072 0.157346 0.162712 0.168408 0.169087 0.16834 0.168907 0.170909 0.171895 0.172001 0.172645 0.172701 0.168861 0.167496 0.168996 0.172193 0.173915 0.178666 0.188309 0.195677 0.201168 0.206381 0.210947 0.210623 0.210425 0.21243 0.213678 0.214502 0.215311 0.216483 0.214467 0.214616 0.216748 0.218175 0.21894 0.218924 0.220044 0.219137 0.220199 0.222507 0.223615 0.227076 0.23077 0.232204 0.234357 0.236504 0.240233 0.243265 0.244862 0.247921 0.250288 0.252011 0.253027 0.253647 0.255306 0.256873 0.258093 0.260049 0.263103 0.265275 0.266529 0.268145 0.269323 0.270706 0.271881 0.272891 0.273631 0.27478 0.275388 0.277263 0.278625 0.2819
265.5325 0.00025 0.319249 0.293957 0.251932 0.207334 0.182404 0.169948 0.161672 0.154839 0.150777 0.150153 0.151212 0.157578 0.157489 0.152696 0.144016 0.140805 0.140456 0.141824 0.144721 0.142422 0.137908 0.13917 0.137453 0.139576 0.144457 0.151598 0.160775 0.167471 0.175434 0.176482 0.181465 0.186847 0.187339 0.186952 0.187686 0.189881 0.190981 0.190883 0.191436 0.191495 0.187644 0.186248 0.187683 0.190852 0.192521 0.197332 0.207147 0.214543 0.219934 0.225158 0.229845 0.22977 0.229368 0.231159 0.232492 0.233321 0.234113 0.235487 0.233412 0.233433 0.235471 0.236902 0.237707 0.237686 0.238838 0.237879 0.238907 0.241309 0.242434 0.245887 0.249596 0.251055 0.253259 0.255337 0.259069 0.262135 0.26373 0.266818 0.269213 0.270949 0.272028 0.27263 0.274205 0.275783 0.276991 0.278888 0.281945 0.284223 0.285482 0.287083 0.288298 0.289692 0.290881 0.2919 0.292641 0.293796 0.294396 0.296276 0.297638 0.300914
265.535 0.00025 0.207405 0.182538 0.140242 0.0954115 0.0704992 0.056812 0.0494725 0.0434209 0.0398245 0.0396515 0.040578 0.0467951 0.0470056 0.0419596 0.0332635 0.0294993 0.0291709 0.0309225 0.0334787 0.0309003 0.0260849 0.028056 0.0261965 0.0282944 0.0329783 0.0404384 0.049953 0.0565932 0.0646546 0.0656145 0.0705143 0.0756643 0.0760554 0.0761025 0.0772276 0.0793988 0.0803593 0.0801903 0.0806124 0.0806721 0.0767868 0.0754567 0.0766291 0.0796032 0.0813921 0.0859965 0.09598 0.103534 0.109158 0.11427 0.119105 0.119129 0.118487 0.120088 0.121583 0.122555 0.123247 0.124662 0.122667 0.122731 0.124694 0.126041 0.126984 0.126908 0.128045 0.127008 0.12803 0.130488 0.131576 0.135024 0.138639 0.140002 0.142157 0.144206 0.147934 0.15106 0.152618 0.155712 0.158081 0.159838 0.160989 0.161589 0.163098 0.164665 0.165912 0.167754 0.170776 0.173101 0.174385 0.175973 0.177212 0.178619 0.179808 0.180834 0.181575 0.182737 0.183329 0.185211 0.186577 0.189845
265.5375 0.00025 0.173792 0.148973 0.106161 0.0607546 0.0357485 0.0215858 0.0152248 0.00958973 0.00545099 0.00576277 0.00600645 0.0124878 0.0127533 0.00751387 -0.000782907 -0.00506976 -0.0055931 -0.00315402 -0.000784933 -0.0044429 -0.0094155 -0.00652395 -0.00833292 -0.0064395 -0.00209809 0.00537445 0.0156688 0.0223816 0.0302425 0.0311332 0.0358938 0.0410298 0.041775 0.0422389 0.0434701 0.0458611 0.0468322 0.0464088 0.0465674 0.0466092 0.0428495 0.0413324 0.042598 0.0455257 0.0473352 0.0518328 0.0618397 0.0695928 0.0753878 0.0805575 0.0853913 0.0856504 0.0848469 0.0863128 0.0878506 0.0887713 0.0894958 0.0910402 0.0891579 0.0891431 0.0910333 0.0923988 0.0933638 0.093425 0.0946111 0.0935692 0.0946429 0.0970882 0.0981908 0.101733 0.10529 0.10668 0.10876 0.110756 0.114519 0.117658 0.11922 0.12234 0.124735 0.126468 0.127719 0.128279 0.129691 0.13124 0.132469 0.134255 0.137258 0.13965 0.140949 0.142525 0.143784 0.145223 0.146424 0.147459 0.148211 0.149384 0.149977 0.151861 0.153216 0.156483
265.54 0.00025 0.25157 0.227337 0.184927 0.140012 0.11519 0.100294 0.0946354 0.0894866 0.0850883 0.0855021 0.0852542 0.0915924 0.0919255 0.086217 0.0780993 0.0735263 0.0728544 0.0756736 0.0780914 0.0743531 0.0693851 0.0728292 0.0713107 0.0729792 0.0770033 0.0844153 0.0952424 0.101706 0.109447 0.11011 0.114245 0.11922 0.119801 0.120444 0.122033 0.124543 0.125457 0.12482 0.124867 0.124922 0.121064 0.119714 0.120812 0.123587 0.125502 0.129784 0.140035 0.147757 0.153678 0.158777 0.163688 0.164052 0.163028 0.16437 0.166006 0.167 0.167628 0.169278 0.167513 0.167504 0.16939 0.170712 0.171618 0.171633 0.17286 0.171833 0.172882 0.175368 0.176385 0.179874 0.183404 0.184809 0.186986 0.18897 0.192715 0.195917 0.197451 0.200594 0.202979 0.204644 0.205998 0.206568 0.2079 0.209435 0.210683 0.212406 0.215374 0.217827 0.219162 0.220718 0.222006 0.22345 0.224658 0.225701 0.226454 0.227625 0.228205 0.230091 0.231447 0.234721
265.5425 0.00025 0.413599 0.389619 0.347195 0.301897 0.27737 0.26229 0.25713 0.25247 0.247958 0.249009 0.248432 0.254762 0.255412 0.249263 0.241834 0.236634 0.235896 0.239424 0.241304 0.237144 0.232618 0.236662 0.235623 0.237368 0.241002 0.248386 0.259414 0.265851 0.273432 0.27413 0.278297 0.283209 0.28383 0.284822 0.286458 0.289032 0.289938 0.289136 0.288943 0.289012 0.285054 0.283727 0.284717 0.287293 0.289222 0.293345 0.303424 0.311317 0.317301 0.322397 0.327225 0.327876 0.326704 0.327785 0.329595 0.330701 0.331246 0.333 0.33131 0.331221 0.333027 0.334315 0.335244 0.335239 0.336575 0.335431 0.336468 0.339053 0.340023 0.343421 0.346911 0.348289 0.350393 0.352344 0.356112 0.359386 0.360931 0.364033 0.366494 0.368179 0.369614 0.370219 0.371448 0.372951 0.374214 0.375906 0.378841 0.381358 0.382708 0.384237 0.385542 0.387009 0.388237 0.389277 0.39004 0.391216 0.391794 0.39368 0.39503 0.398304
265.545 0.00025 0.511368 0.487521 0.444682 0.39921 0.37481 0.358818 0.353327 0.349749 0.34513 0.34664 0.345117 0.351175 0.351799 0.344789 0.337858 0.332071 0.331405 0.335339 0.336947 0.332106 0.327452 0.331867 0.330882 0.332286 0.335823 0.343494 0.354661 0.361053 0.368728 0.369317 0.373229 0.377942 0.37908 0.38037 0.382392 0.385136 0.385953 0.385278 0.384765 0.384929 0.381065 0.379764 0.380659 0.382986 0.385065 0.389078 0.399252 0.407252 0.413404 0.418569 0.423313 0.424 0.422765 0.423649 0.425384 0.426503 0.427033 0.428853 0.427226 0.427128 0.428901 0.430095 0.431005 0.431109 0.432348 0.4312 0.432335 0.434919 0.4359 0.439408 0.442808 0.444201 0.446265 0.448128 0.45188 0.455149 0.456674 0.459778 0.462285 0.463955 0.465449 0.466105 0.467241 0.468703 0.469964 0.471623 0.474538 0.477101 0.478475 0.47999 0.481315 0.482806 0.484045 0.48509 0.485853 0.487038 0.4876 0.489484 0.490824 0.494094
265.5475 0.00025 0.452623 0.429102 0.386273 0.340525 0.316694 0.299555 0.295052 0.291678 0.287622 0.289764 0.287377 0.293734 0.294634 0.287059 0.280561 0.27429 0.273419 0.277991 0.279226 0.274222 0.269514 0.274504 0.273995 0.274981 0.278112 0.28588 0.297503 0.303866 0.311449 0.312116 0.315889 0.320389 0.321619 0.323321 0.325854 0.328499 0.329377 0.328492 0.327673 0.327852 0.324 0.322764 0.323412 0.325693 0.327884 0.331635 0.34188 0.350026 0.356068 0.361347 0.366042 0.366944 0.3656 0.366318 0.368155 0.369296 0.369779 0.37168 0.370212 0.370143 0.371926 0.373121 0.373987 0.374109 0.375385 0.374215 0.375387 0.377981 0.378947 0.382392 0.385756 0.387278 0.389304 0.391139 0.39495 0.398288 0.39979 0.402883 0.405369 0.406981 0.408515 0.409234 0.410276 0.411675 0.412914 0.414534 0.417389 0.419983 0.421392 0.422872 0.424207 0.425721 0.426959 0.428008 0.42878 0.429968 0.430518 0.432394 0.433733 0.437007
265.55 0.00025 0.316773 0.293386 0.250402 0.20547 0.181102 0.163818 0.159648 0.156891 0.153113 0.156131 0.152738 0.159106 0.160287 0.152362 0.146412 0.139714 0.138807 0.143943 0.145081 0.139989 0.135448 0.140886 0.140765 0.141533 0.144411 0.152308 0.163799 0.170498 0.177891 0.178242 0.181653 0.186237 0.18762 0.189493 0.19225 0.194776 0.195435 0.194737 0.193663 0.193728 0.189915 0.188746 0.1892 0.191188 0.193536 0.19722 0.207347 0.215577 0.221849 0.227093 0.23163 0.232775 0.231491 0.232018 0.233894 0.235178 0.235609 0.237615 0.236307 0.236063 0.23788 0.238976 0.2398 0.240043 0.241364 0.240211 0.241432 0.24405 0.244956 0.24841 0.251658 0.253185 0.255185 0.256899 0.260651 0.26404 0.265538 0.268615 0.271123 0.272703 0.274289 0.275057 0.27604 0.277394 0.278627 0.28021 0.28301 0.285647 0.287111 0.288589 0.289931 0.291444 0.292694 0.293758 0.294525 0.295719 0.296268 0.29814 0.299495 0.302766
265.5525 0.00025 0.239034 0.21574 0.173066 0.127911 0.103738 0.0858044 0.0825923 0.0794346 0.0757097 0.0787681 0.0742096 0.0807631 0.082107 0.0736753 0.0678986 0.0608751 0.0597843 0.0653155 0.0661439 0.0606796 0.0567229 0.0621263 0.0623575 0.0631452 0.0660304 0.0739239 0.0858262 0.092498 0.0998698 0.100508 0.103851 0.108242 0.109946 0.111809 0.114789 0.117578 0.118308 0.117467 0.115957 0.116032 0.112222 0.111079 0.111405 0.113364 0.11602 0.119418 0.129593 0.137957 0.144261 0.149646 0.154126 0.155341 0.154156 0.154473 0.156328 0.157623 0.158016 0.16002 0.158815 0.158634 0.160478 0.161528 0.162361 0.162604 0.163972 0.162794 0.16406 0.166733 0.167635 0.171039 0.174194 0.175784 0.177837 0.179468 0.183218 0.186653 0.188125 0.191122 0.193651 0.195234 0.196852 0.197646 0.19857 0.199839 0.201099 0.202658 0.205429 0.208098 0.209614 0.211076 0.212431 0.21399 0.215252 0.216323 0.217098 0.21829 0.218825 0.220698 0.22205 0.225329
265.555 0.00025 0.225071 0.201845 0.158797 0.113841 0.089897 0.0712718 0.0682217 0.064795 0.0613184 0.0647599 0.0597137 0.0666861 0.0681323 0.0596511 0.0542417 0.0467926 0.0458432 0.0517925 0.0518204 0.0461341 0.0423903 0.0481424 0.0484981 0.0489082 0.0514469 0.0592163 0.0710125 0.0780633 0.0855303 0.0863655 0.0895701 0.0938098 0.0955242 0.0978079 0.101168 0.103499 0.104189 0.103469 0.101789 0.101673 0.097963 0.0970197 0.0970243 0.098771 0.101709 0.104959 0.115098 0.123614 0.130133 0.135592 0.139903 0.141319 0.140093 0.140289 0.142219 0.143511 0.143857 0.145961 0.1448 0.144633 0.146528 0.147526 0.148189 0.148522 0.149905 0.148693 0.15006 0.152746 0.153712 0.157085 0.160155 0.16179 0.163824 0.165445 0.169212 0.172663 0.174183 0.177213 0.179797 0.181362 0.182983 0.183867 0.184715 0.185919 0.187207 0.188776 0.191519 0.194218 0.195771 0.197229 0.198593 0.200162 0.201429 0.202508 0.203291 0.204493 0.205028 0.206901 0.208243 0.211516
265.5575 0.00025 0.377694 0.354493 0.31167 0.265908 0.241556 0.223118 0.220303 0.216729 0.213942 0.217422 0.21164 0.218601 0.220282 0.212258 0.206593 0.198628 0.19756 0.203849 0.203803 0.198175 0.194586 0.200266 0.200751 0.200948 0.203467 0.211122 0.222523 0.229389 0.236818 0.237753 0.240483 0.244609 0.246898 0.249357 0.253387 0.255752 0.25628 0.255463 0.253578 0.253448 0.249757 0.248877 0.248775 0.25047 0.253576 0.256589 0.266467 0.275001 0.281499 0.287108 0.291364 0.292853 0.291642 0.291753 0.293677 0.295022 0.295311 0.297553 0.29669 0.296513 0.298369 0.299315 0.299907 0.300274 0.301652 0.300468 0.30181 0.304519 0.305474 0.308844 0.311862 0.313545 0.315505 0.317022 0.320829 0.324353 0.325871 0.328891 0.331497 0.333023 0.334679 0.335681 0.336499 0.337622 0.338874 0.340435 0.343154 0.345898 0.347526 0.348965 0.350329 0.351922 0.353207 0.354294 0.355081 0.356288 0.356812 0.35868 0.360026 0.363289
265.56 0.00025 0.64311 0.619696 0.576915 0.531069 0.506025 0.4871 0.484779 0.480832 0.477953 0.481378 0.474947 0.481823 0.483917 0.47603 0.470548 0.462176 0.461024 0.467266 0.467002 0.461458 0.457999 0.463645 0.464527 0.464661 0.467206 0.474972 0.486221 0.493274 0.5007 0.501659 0.504272 0.508194 0.510507 0.513208 0.517474 0.519665 0.520016 0.519457 0.517229 0.51687 0.513289 0.512662 0.512298 0.513877 0.517162 0.51995 0.529807 0.538462 0.545148 0.550817 0.5548 0.556448 0.555291 0.55521 0.557103 0.55835 0.558615 0.560807 0.559943 0.559688 0.561633 0.562605 0.563177 0.563573 0.565064 0.563739 0.565091 0.567767 0.568718 0.572029 0.574973 0.576801 0.578769 0.580182 0.583936 0.587491 0.58904 0.59204 0.594699 0.596225 0.597876 0.598931 0.599703 0.600719 0.601968 0.603505 0.606153 0.608892 0.610554 0.611991 0.613355 0.614962 0.61626 0.617347 0.618136 0.619358 0.619872 0.621739 0.623087 0.626346
265.5625 0.00025 0.856369 0.832935 0.790179 0.744227 0.719586 0.701078 0.69898 0.695023 0.692093 0.695313 0.688498 0.695447 0.697395 0.690068 0.684685 0.676002 0.675138 0.681265 0.6806 0.675137 0.672272 0.678158 0.678927 0.678998 0.681613 0.689189 0.700579 0.707554 0.714819 0.715844 0.718156 0.722167 0.724767 0.727673 0.732333 0.73427 0.734693 0.73401 0.731572 0.730942 0.727424 0.726878 0.726289 0.72766 0.731216 0.73375 0.74345 0.752338 0.759052 0.765069 0.769015 0.770788 0.769748 0.769515 0.771486 0.772727 0.77304 0.775451 0.774857 0.774546 0.776602 0.777478 0.777923 0.778403 0.779888 0.77855 0.779892 0.782724 0.783739 0.786902 0.789708 0.791695 0.793652 0.795007 0.798739 0.802313 0.803851 0.806809 0.809519 0.811067 0.812719 0.813826 0.814615 0.815547 0.816763 0.818317 0.82091 0.823639 0.825363 0.826818 0.828211 0.82984 0.831151 0.832257 0.833055 0.834273 0.834774 0.836628 0.837977 0.841238
265.565 0.00025 0.937464 0.913773 0.870897 0.824898 0.800187 0.781843 0.780076 0.776133 0.773987 0.777183 0.769962 0.776946 0.778941 0.772411 0.766891 0.757887 0.757139 0.763004 0.76195 0.756578 0.754205 0.760027 0.760524 0.760491 0.76352 0.770832 0.781822 0.788957 0.796411 0.797457 0.799411 0.803366 0.806185 0.809334 0.814505 0.816289 0.816493 0.816135 0.813366 0.812635 0.809136 0.808842 0.808072 0.80932 0.812996 0.815416 0.824918 0.833506 0.840472 0.846392 0.850219 0.852058 0.851151 0.850821 0.852675 0.853861 0.854118 0.85649 0.855924 0.855682 0.857672 0.858542 0.85879 0.859194 0.860713 0.859381 0.860771 0.863523 0.864568 0.867678 0.870392 0.872443 0.874339 0.875598 0.879286 0.882912 0.884493 0.887409 0.890107 0.891635 0.893295 0.894479 0.895229 0.896114 0.897292 0.898828 0.901382 0.904095 0.905873 0.907324 0.908708 0.910366 0.911693 0.912799 0.913593 0.914815 0.915323 0.917173 0.918521 0.92178
265.5675 0.00025 0.815564 0.791684 0.749119 0.70298 0.677791 0.659082 0.657735 0.653287 0.652142 0.655376 0.647676 0.654639 0.656823 0.650723 0.644858 0.635021 0.634509 0.640409 0.638898 0.633611 0.631542 0.637184 0.637478 0.637605 0.640634 0.647792 0.65871 0.665675 0.673114 0.674333 0.676188 0.680128 0.683169 0.686509 0.692162 0.693593 0.693739 0.693467 0.690523 0.689667 0.686083 0.686056 0.685129 0.686396 0.690381 0.69268 0.70205 0.710985 0.718045 0.72432 0.727888 0.72986 0.729039 0.728482 0.730353 0.731465 0.73164 0.734117 0.733636 0.733366 0.735555 0.736424 0.73662 0.737079 0.738605 0.737318 0.738649 0.741478 0.742608 0.745658 0.74836 0.750566 0.752505 0.753696 0.757357 0.761027 0.762685 0.765571 0.768274 0.769794 0.771462 0.77275 0.773542 0.774368 0.775534 0.777074 0.7796 0.7823 0.784113 0.785588 0.786977 0.788637 0.789956 0.79107 0.791876 0.793103 0.793605 0.795464 0.796812 0.800074
265.57 0.00025 0.522494 0.498765 0.456143 0.409575 0.383021 0.36467 0.363475 0.358228 0.35756 0.360242 0.352734 0.359694 0.361615 0.356516 0.350154 0.340276 0.339914 0.3455 0.343892 0.339285 0.337799 0.343314 0.3436 0.343735 0.346309 0.353286 0.363815 0.37076 0.378139 0.379455 0.381009 0.384758 0.388145 0.391773 0.397773 0.399005 0.399239 0.398943 0.395735 0.394564 0.39126 0.391365 0.390358 0.391407 0.395396 0.397464 0.406656 0.415226 0.42258 0.428684 0.432015 0.433933 0.433192 0.432679 0.434513 0.435517 0.435766 0.438233 0.437957 0.437842 0.440039 0.440908 0.440987 0.441441 0.443088 0.441671 0.443042 0.445977 0.447186 0.450181 0.452701 0.455037 0.457063 0.458201 0.4618 0.465429 0.467154 0.470085 0.472814 0.474308 0.475956 0.47728 0.478069 0.478858 0.479964 0.481476 0.484002 0.486682 0.488559 0.490018 0.491401 0.493079 0.494401 0.495525 0.496334 0.497571 0.498063 0.499911 0.501255 0.50452
265.5725 0.00025 0.220587 0.19676 0.154323 0.108133 0.0811881 0.063032 0.0621286 0.0570185 0.0570505 0.0594856 0.0518568 0.0585559 0.0604717 0.0560416 0.0490541 0.0393162 0.0391996 0.0446566 0.0431663 0.0387721 0.0376294 0.0433103 0.0436072 0.0440658 0.0471746 0.0541361 0.0645286 0.0710836 0.0784813 0.0800712 0.0815384 0.0851147 0.0887012 0.0926414 0.0988948 0.0998288 0.0999599 0.0996616 0.0963544 0.0952195 0.091805 0.0921395 0.0908699 0.091898 0.0960273 0.0980314 0.107089 0.115991 0.123509 0.129878 0.132976 0.135092 0.13445 0.133874 0.135669 0.136561 0.136808 0.13935 0.139154 0.138962 0.141123 0.142022 0.141994 0.142326 0.143957 0.14255 0.143838 0.146718 0.147944 0.150819 0.153257 0.155747 0.157709 0.158826 0.162414 0.165981 0.167783 0.170639 0.173354 0.174879 0.176502 0.177847 0.178664 0.179404 0.18048 0.181997 0.184513 0.187175 0.189082 0.19056 0.191963 0.193659 0.194999 0.196134 0.196946 0.198188 0.198681 0.200523 0.201871 0.205138
265.575 0.00025 0.119624 0.095753 0.0530543 0.00665952 -0.0199499 -0.0374539 -0.0379511 -0.0430142 -0.0424638 -0.0407055 -0.0477117 -0.0412495 -0.0394545 -0.0432218 -0.0504642 -0.0601819 -0.0601508 -0.055003 -0.0564453 -0.0604107 -0.0614667 -0.0562589 -0.0559421 -0.0551737 -0.0521369 -0.0456714 -0.0358008 -0.0294197 -0.022121 -0.0203621 -0.0193434 -0.0157812 -0.0118228 -0.00752402 -0.000962678 -0.000247476 -7.82684e-05 -0.000114126 -0.00372615 -0.00515927 -0.0086352 -0.0080748 -0.0094325 -0.00843128 -0.00411146 -0.00195543 0.00698439 0.0156223 0.0234187 0.029984 0.0330573 0.0351154 0.0345895 0.0339256 0.0357147 0.0364816 0.0367134 0.0392986 0.0391965 0.0390864 0.0413589 0.0422495 0.0421317 0.0424694 0.0441611 0.0427618 0.0440135 0.0469343 0.0482482 0.0510489 0.0534522 0.0560755 0.0580273 0.059094 0.0626502 0.0662426 0.0680665 0.0709185 0.0736435 0.075171 0.0768002 0.0782033 0.079046 0.0797382 0.0807309 0.0822328 0.0847511 0.0874175 0.0893767 0.0908647 0.0922695 0.0939865 0.0953283 0.096472 0.097287 0.0985318 0.0990162 0.100858 0.102207 0.105476
265.5775 0.00025 0.179083 0.155175 0.112345 0.0660617 0.038971 0.0213646 0.0207749 0.0153979 0.0165139 0.0175292 0.0103557 0.0163514 0.0180212 0.0145609 0.00680548 -0.00265819 -0.00234838 0.00239156 0.00115024 -0.0025002 -0.00288353 0.00223434 0.00221418 0.00324381 0.00621509 0.0123411 0.0221284 0.0284 0.0354266 0.0373617 0.0381925 0.0416536 0.0457631 0.0503398 0.0571057 0.0576154 0.0578677 0.0578224 0.054058 0.0526639 0.0492103 0.0499608 0.0486235 0.0496406 0.0537483 0.0557114 0.0644729 0.0730507 0.0810806 0.0876323 0.0905712 0.0928705 0.0924362 0.0917718 0.0935619 0.0943465 0.0946116 0.0972313 0.0972947 0.0973015 0.0996953 0.100652 0.100455 0.100731 0.102436 0.100937 0.102166 0.105253 0.10668 0.10936 0.111641 0.114313 0.116217 0.117255 0.120766 0.124317 0.126221 0.129083 0.131811 0.133365 0.134961 0.136429 0.137325 0.137978 0.138926 0.140389 0.142903 0.145545 0.147553 0.149083 0.15047 0.152205 0.153554 0.154706 0.155539 0.156781 0.157249 0.15908 0.160428 0.163679