265.5025 0.00025 -58.3094 -51.2364 -29.4204 -24.2664 -9.55242 -30.0369 2.44188 3.75306 -2.00942 9.96447 6.3342 6.29492 23.5731 14.2291 30.5065 20.4571 17.6117 12.6854 -1.31614 11.3305 10.4829 27.3334 31.5709 -1.10815 -17.6466 -36.5926 -37.7773 -38.9408 -18.6298 -0.18152 -5.96904 6.73747 -1.3505 12.6763 32.4943 55.2182 63.498 81.0436 87.687 90.4986 82.9717 94.8734 105.68 112.097 113.199 107.562 114.191 118.531 133.933 124.932 113.624 110.106 116.037 117.272 123.952 128.093 131.383 147.247 140.925 137.222 122.82 128.109 130.58 141.595 153.25 154.898 139.1 134.319 124.082 139.071 165.578 177.051 202.427 213.744 211.024 204.641 186.739 177.154 200.21 233.136 256.966 248.412 232.372 224.203 213.083 180.991 174.049 176.586 157.651 132.124 111.586 91.0338 80.0125 82.4603 102.425 117.658 150.893 198.336 230.182 291.232
265.505 0.00025 -60.7349 -50.3408 -27.6549 -19.1762 -4.81957 -28.0706 -0.00536158 6.45657 -2.19985 10.4045 8.61352 6.7391 24.2634 16.3493 32.9644 22.1658 18.3919 12.6447 -0.131228 12.7177 10.1086 26.1572 31.1698 -1.38235 -16.237 -36.885 -37.6869 -37.8635 -18.2596 0.695572 -4.68663 7.55906 -3.36784 10.886 32.548 56.4173 64.5099 82.5958 89.3374 92.0481 83.7639 94.4732 105.309 112.505 113.878 108.022 113.975 119.814 135.65 127.048 115.891 113.442 119.399 119.306 124.706 128.321 129.366 143.724 138 136.761 122.537 127.433 130.85 140.353 153.392 156.199 139.563 135.676 124.894 139.464 166.614 177.961 202.826 215.781 213.525 207.389 189.951 179.128 197.41 230.497 256.072 252.101 234.962 225.561 215.585 182.546 173.629 175.771 158.012 131.899 110.411 89.7945 77.8368 80.0758 100.487 115.847 149.095 196.726 229.231 292.249
265.5075 0.00025 -62.5971 -48.6008 -26.0795 -14.3592 -0.454922 -25.1105 -1.92154 9.06802 -2.0759 11.0625 10.654 7.03675 25.2945 19.377 35.4651 24.0673 18.9503 12.8987 1.61366 14.3189 9.93545 25.2704 30.6205 -1.07648 -14.5834 -37.3333 -37.7549 -36.6586 -18.444 1.34234 -2.941 8.41305 -5.04251 9.29429 32.1387 57.4227 65.5123 83.6925 91.3467 94.1728 84.9995 93.8897 104.795 112.975 114.794 109.16 114.194 121.258 137.598 129.859 118.202 117.275 123.345 122.256 126.1 129.665 128.611 141.401 136.019 136.758 123.213 127.599 131.587 139.348 153.246 157.337 140.036 137.005 125.838 139.847 167.165 178.107 202.393 217.093 215.594 209.774 192.715 180.741 194.795 227.94 255.202 255.98 238.383 227.535 218.919 185.1 173.762 175.457 158.875 131.836 109.035 88.3129 75.3329 77.213 98.0215 113.869 147.29 195.584 227.911 292.834
265.51 0.00025 -64.0519 -46.3672 -24.5661 -9.74575 3.203 -21.3414 -2.68898 11.3186 -1.58281 12.0411 12.1351 7.37938 26.7073 22.8617 38.181 26.3141 19.7107 13.5843 3.86254 15.6256 9.2181 23.8127 29.4637 -0.69058 -12.8072 -37.5683 -37.2942 -34.7028 -18.4518 1.82822 -1.07393 9.15687 -6.18724 8.17835 31.8786 58.711 67.277 85.3383 93.4185 96.1172 86.3837 93.3602 104.532 113.513 115.169 110.166 114.265 122.356 138.595 132.739 120.811 121.705 127.599 125.871 127.875 131.557 128.85 139.772 134.936 137.285 124.243 127.912 132.134 138.563 153.023 158.455 140.936 138.575 127.243 140.62 167.999 178.526 201.756 217.637 216.794 211.424 195.177 182.575 192.621 224.934 253.936 259.367 241.491 229.116 221.847 187.986 174.047 174.864 159.988 132.295 107.985 87.1498 73.1046 74.356 95.2931 111.691 145.398 194.704 226.474 293.673
265.5125 0.00025 -64.359 -44.0824 -23.1048 -5.54796 6.00921 -16.8944 -3.2766 13.0258 -0.811736 12.7188 12.8682 7.49713 28.1414 25.8398 40.1154 28.2869 20.3452 14.6379 6.24103 16.164 7.90627 21.9586 27.6949 -0.122721 -10.3131 -37.3977 -36.4416 -32.4584 -18.3281 2.24332 0.749222 9.67859 -6.62955 7.64148 31.9324 60.0625 69.6205 87.457 95.6125 98.1029 87.9079 92.8726 104.061 113.76 114.724 110.864 113.697 122.682 138.549 134.498 122.521 125.996 131.719 129.544 129.332 133.055 128.713 137.334 133.734 137.83 125.2 127.804 131.89 137.471 152.191 158.967 141.821 139.983 128.88 141.859 169.562 180.128 202.144 218.654 218.127 212.653 197.294 184.613 191.231 221.684 251.988 261.508 243.471 229.409 223.372 189.894 173.762 173.121 159.918 132.499 106.964 85.9833 70.9753 71.6492 92.747 109.842 143.889 193.806 225.234 295.188
265.515 0.00025 -63.778 -42.4861 -22.3629 -2.29605 8.26979 -12.3795 -4.09238 13.7722 -0.334948 12.8106 12.9569 7.27137 29.4612 27.6612 41.0137 29.3643 20.5036 15.7271 9.22023 16.556 7.09045 20.5245 25.8658 1.24168 -6.92019 -36.5892 -35.0856 -30.0307 -18.0872 2.61003 2.74317 9.993 -6.5065 7.50383 32.0681 61.181 71.928 89.7332 97.8439 100.043 89.5167 92.3572 103.048 113.387 113.089 110.787 112.319 122.403 137.613 135.46 123.358 129.33 134.764 132.523 130.432 134.323 128.523 134.421 131.68 136.9 125.583 127.482 131.564 136.486 151.044 158.921 142.516 140.928 129.868 142.59 170.123 180.909 202.04 219.461 219.387 213.435 199.302 186.687 190.156 218.248 249.727 263.417 246.193 229.967 224.454 191.377 173.7 171.395 159.411 132.774 106.326 85.0397 69.0458 69.3375 90.6565 108.411 142.569 192.371 223.644 295.686
265.5175 0.00025 -62.5096 -42.8122 -23.4092 -0.968899 10.0286 -7.93642 -4.86546 13.5786 -0.423701 12.423 12.7465 7.06212 30.6877 29.3016 41.4885 29.8397 20.2041 16.7918 12.6301 16.3312 5.96196 19.2199 24.39 3.54695 -3.31304 -35.2521 -32.9485 -27.0375 -17.4879 3.21626 5.09836 10.4742 -5.67118 7.97023 32.5098 62.2706 74.3832 92.2452 100.278 102.151 91.0695 91.8693 101.958 112.872 111.004 110.26 110.63 121.733 136.431 136.097 123.588 131.893 136.988 134.784 131.244 134.936 127.957 130.638 128.603 134.45 125.221 127.113 131.076 135.756 149.862 158.229 142.951 141.289 130.185 142.369 169.033 180.34 200.524 218.879 219.818 213.654 200.895 188.329 188.911 214.242 246.283 264.586 249.303 230.876 225.679 192.909 174.077 170.64 159.926 134.095 106.774 85.1187 68.1469 68.0905 89.287 107.157 141.117 190.499 221.231 293.54
265.52 0.00025 -59.8341 -44.7984 -25.5588 -0.579492 11.9338 -2.8349 -4.9045 12.7354 -0.66309 11.3973 12.6757 6.91665 31.5474 30.2829 41.1629 29.9531 19.7671 17.9048 16.1458 15.5431 4.78105 17.9944 23.0835 6.21429 0.0566565 -33.1943 -29.9898 -23.386 -15.8643 4.47297 8.18769 11.5957 -3.76878 9.15417 33.607 63.5711 77.1575 95.2991 102.98 104.603 93.0692 92.3013 102.045 113.542 109.749 110.104 109.472 121.179 135.253 136.984 124.125 134.681 139.284 136.905 131.8 134.996 127.191 126.414 125.12 131.462 124.206 126.517 129.988 134.926 148.625 156.977 143.238 141.384 130.308 142.092 167.878 179.731 198.577 217.614 219.904 213.586 202.269 189.785 187.935 210.01 241.793 264.552 251.787 230.84 226.234 194.072 174.135 170.151 161.104 136.276 107.856 85.7692 67.953 67.3893 88.3028 105.739 139.383 188.376 218.421 290.201
265.5225 0.00025 -56.1515 -48.0506 -27.759 -0.734657 13.0678 2.67055 -3.7669 12.3988 -0.449848 10.0255 12.1804 6.2763 31.3404 29.8579 39.7715 29.5871 18.9305 18.8906 19.5044 14.618 3.79975 16.5409 21.82 9.43691 3.48727 -30.2411 -26.6644 -19.5163 -13.1483 6.6967 11.65 13.3409 -0.998493 10.8972 35.1392 65.1151 80.2559 98.8816 105.793 107.156 95.2958 93.3605 102.749 114.938 109.673 111.111 109.107 121.052 134.665 138.559 125.657 137.898 142.165 139.711 133.23 135.499 127.054 122.759 122.032 128.581 123.169 126.473 129.301 134.508 148.028 156.233 144.368 141.905 130.98 142.899 167.897 180.063 197.186 216.574 220.317 214.263 204.654 192.141 187.811 206.23 237.179 263.531 254.328 231.352 226.846 195.426 174.179 168.895 161.04 137.648 108.51 86.1922 67.5473 66.4131 87.2661 104.264 137.634 186.406 216.262 288.035
265.525 0.00025 -52.3532 -52.9137 -30.8491 -1.12192 13.536 7.85952 -2.49993 12.2291 0.0406102 8.5135 11.552 5.6918 31.2745 29.4318 38.764 29.7283 18.3995 20.4098 22.7416 13.569 2.50997 14.4767 20.3807 12.7049 6.25774 -26.9577 -23.4705 -16.0215 -10.48 8.8521 14.2216 14.3365 0.918804 12.0554 36.1732 66.0194 82.2162 102.118 108.361 109.797 97.8284 94.8751 103.6 115.957 109.565 112.108 109.29 121.195 134.224 139.931 127.272 140.394 144.677 142.671 135.672 136.597 127.38 119.531 119.102 125.694 122.157 126.697 128.813 134.383 147.96 155.822 146.244 143.241 132.5 144.617 168.643 181.851 197.422 216.534 221.482 215.852 208.399 196.302 189.435 204.131 233.39 262.168 256.891 232.666 228.09 197.404 174.766 167.718 160.065 137.718 108.063 85.8189 66.4118 64.7646 85.7064 102.553 135.806 184.484 214.185 286.946
265.5275 0.00025 -48.4503 -58.0763 -34.5255 -1.32739 13.8417 13.0169 -0.777248 11.6211 0.354741 7.00048 11.148 5.66845 31.4137 29.0989 38.1931 30.6003 18.7413 22.5536 25.7712 12.5928 1.30984 12.2953 19.2649 15.9378 8.12364 -23.6296 -20.6551 -13.1408 -8.51042 9.68998 14.7534 13.3578 1.1814 11.713 36.1845 65.8328 82.6227 104.342 110.247 111.615 99.8908 96.4303 104.727 116.609 108.855 112.131 109.406 121.528 133.988 141.151 129.017 142.245 146.52 144.841 137.711 137.685 127.932 116.781 116.227 122.759 120.778 126.909 128.296 134.034 147.511 154.751 147.658 144.339 133.952 146.106 168.466 183.09 197.954 216.854 222.971 217.355 211.617 200.081 191.325 202.871 229.728 260.413 259.688 234.843 230.293 200.432 176.05 167.456 159.847 137.864 107.172 84.8968 64.7444 62.4813 83.5281 100.628 133.923 182.911 212.029 286.12
265.53 0.00025 -44.5232 -63.1259 -38.1785 -1.52406 14.431 17.9171 1.14737 10.8792 0.725701 5.65839 10.9491 6.11566 31.6391 28.8273 38.0024 32.0236 19.9004 25.7669 29.1435 12.3836 1.01074 10.5019 18.6589 19.4646 9.60828 -19.921 -17.7756 -10.368 -6.86437 9.83963 14.3744 11.78 1.12599 10.806 35.7415 64.7995 81.7123 105.546 111.503 112.514 101.287 97.5942 106.242 117.422 108.858 112.26 109.183 121.357 133.522 141.891 130.974 143.713 148.3 146.753 139.755 138.657 128.666 115.037 113.932 120.329 119.745 127.664 128.237 133.736 147.012 153.183 148.597 145.21 135.273 147.601 167.935 183.533 197.782 216.519 224.031 218.577 214.391 203.216 192.746 201.904 226.714 258.726 262.73 237.724 232.772 204.21 178.213 167.532 160.264 138.815 106.655 84.1206 63.0624 59.9349 80.9006 98.5202 131.918 181.651 209.663 284.738
265.5325 0.00025 -40.6776 -67.6654 -41.6136 -2.38985 15.7284 22.24 3.30953 9.92763 0.824975 4.55128 10.7484 6.76688 31.7922 28.5322 38.5229 33.9451 21.6968 29.918 32.5619 13.003 1.7049 9.24372 18.8404 23.5549 10.9789 -15.7206 -14.8705 -7.44023 -4.81094 10.7968 14.3424 10.5736 1.09766 9.89684 35.1311 63.7682 80.0285 105.801 112.309 113.108 102.425 98.6585 107.623 117.753 109.256 112.542 109.031 121.01 132.957 142.515 133.467 145.197 150.256 148.762 142.058 140.248 129.875 114.471 112.414 118.711 118.874 128.576 128.625 133.683 146.827 151.781 149.51 146.057 136.603 149.387 167.776 183.919 197.395 215.441 224.24 219.349 216.905 206.601 194.639 201.341 223.854 256.671 264.955 240.443 235.196 207.842 180.72 167.617 160.224 140.009 106.731 83.8076 61.8673 57.7174 78.3642 96.5197 130.186 180.897 207.582 283.738
265.535 0.00025 -37.6256 -71.827 -45.1428 -3.55968 17.2828 25.157 5.52189 9.05727 0.79647 4.26402 10.3619 7.50964 31.3878 28.2926 39.2899 35.9719 23.8368 34.2456 35.5501 13.7848 3.16394 8.66526 19.9076 27.9571 12.7252 -10.7982 -11.1027 -3.74818 -2.29103 11.9959 14.1856 9.82886 1.58809 9.55782 35.1381 63.3286 78.6787 106.082 113.297 113.984 103.656 99.9192 108.981 117.492 109.422 112.27 108.376 119.937 131.732 142.502 135.931 147.004 152.368 150.813 144.823 142.256 131.27 114.472 111.286 117.607 117.961 129.171 128.94 133.373 146.609 150.395 150.198 146.948 138.063 151.493 168.042 184.942 197.883 214.678 224.237 219.611 218.676 209.837 196.909 201.279 220.753 253.589 265.6 242.055 236.581 210.801 182.658 167.217 159.038 140.357 106.638 83.3815 60.7042 55.7535 76.2215 95.0692 129.091 180.186 205.715 283.235
265.5375 0.00025 -34.688 -75.2269 -49.3339 -4.27892 18.4928 26.8484 7.64843 8.19017 0.487067 3.97829 9.31427 8.66501 30.5849 27.7592 39.3847 37.2875 25.8606 37.8784 37.6823 13.9519 4.726 8.40176 21.3077 32.6434 15.1327 -5.12811 -6.17359 0.420165 0.552752 13.5115 14.1445 9.4686 2.45184 9.88319 36.0715 63.846 78.0159 106.606 114.481 114.927 104.881 101.279 110.153 116.684 109.362 111.55 107.06 117.666 129.442 140.908 137.523 148.392 154.562 153.102 147.844 144.067 132.524 114.85 109.761 116.556 117.177 129.783 129.666 132.89 146.288 149.186 150.426 147.609 139.084 153.199 167.878 185.345 198.019 213.764 224.262 219.634 219.846 212.62 199.068 201.527 217.944 250.705 266.269 244.265 237.88 213.362 184.48 167.151 158.026 140.758 106.956 83.3962 59.8924 54.2872 74.5665 93.9904 128.104 178.958 203.554 281.513
265.54 0.00025 -31.9317 -78.0113 -54.2002 -3.65708 19.2103 27.8743 9.82823 7.39501 -0.154516 3.87571 7.95269 10.2941 29.7782 27.146 39.4895 38.3917 28.2482 40.7655 38.6753 13.785 6.527 8.55699 23.0444 37.6026 18.6321 1.38422 -0.190392 5.07974 3.41799 15.1484 13.9426 8.98359 3.36702 10.5896 37.1216 64.7693 77.3201 106.909 115.694 115.84 105.752 102.375 110.92 115.558 108.889 110.456 105.261 114.784 126.537 138.632 138.312 148.567 155.788 154.317 150.311 145.82 133.062 115.108 107.27 114.673 115.589 129.678 130.523 132.576 146.036 148.099 150.135 147.647 139.151 153.836 166.326 184.335 196.978 211.733 223.479 219.268 220.169 214.802 200.745 201.524 215.147 247.389 266.369 246.217 239.213 215.694 185.876 167.382 157.899 142.114 108.237 84.3421 60.0796 53.697 73.4713 92.8877 126.849 177.394 200.816 277.589
265.5425 0.00025 -29.2767 -80.1406 -59.6285 -2.11924 19.5835 28.1414 12.5217 7.3877 -0.429885 4.65403 7.09393 12.4934 28.6912 26.6193 39.6264 38.8077 31.2135 43.2374 39.1968 14.1574 9.03269 9.81143 25.1586 42.0695 22.9811 8.29425 6.53871 10.1617 6.35137 17.0117 13.8536 8.6925 4.27106 11.4882 38.257 65.7522 76.4634 106.614 116.837 116.948 106.562 103.493 111.776 114.3 108.405 109.29 103.585 111.874 124.167 136.497 138.743 148.161 156.364 154.495 151.861 146.989 132.309 114.731 104.039 111.689 112.558 128.144 130.779 131.955 145.371 146.582 149.213 147.192 138.714 154.07 164.504 183.002 195.588 209.213 222.286 218.915 220.354 217.006 202.188 201.427 212.248 243.096 265.361 246.878 239.359 217.316 186.65 167.187 157.582 143.616 109.786 85.4552 60.5854 53.29 72.6199 91.6844 125.344 175.649 198.043 273.428
265.545 0.00025 -27.2881 -82.213 -65.503 -0.366049 19.4907 27.3835 14.5924 7.31586 -0.370263 5.90734 6.65289 14.9738 27.324 25.9994 39.5818 37.9555 33.8266 44.5905 38.8804 14.8756 12.2098 12.2923 27.5503 45.5678 27.8471 15.6695 14.2341 16.1471 9.60291 19.0528 14.5205 9.02814 5.3826 12.4684 39.3488 66.8735 76.0288 106.25 117.913 118.5 107.905 105.321 113.236 113.804 108.899 109.101 102.87 109.548 122.414 135.053 139.627 148.256 157.277 154.663 153.151 148.05 131.041 114.353 100.691 108.387 109.201 126.355 131.091 131.357 144.87 145.875 148.875 147.031 138.745 154.93 163.835 182.682 195.009 207.172 221.167 219.074 221.373 220.267 204.311 202.082 209.846 238.555 263.633 247.558 239.612 219.028 187.771 166.947 156.259 143.791 110.317 85.941 60.5889 52.5081 71.5859 90.3376 123.695 173.917 195.571 270.274
265.5475 0.00025 -26.1815 -85.0942 -71.1593 1.71933 19.4297 26.1465 15.882 6.99897 0.0470732 7.25736 6.1866 17.4552 25.8035 25.1068 38.9924 35.8821 36.2595 44.2927 37.1839 15.1159 15.025 15.65 29.9588 48.4815 33.384 23.5482 22.7522 23.3184 13.5667 21.618 15.8576 9.85695 6.96374 13.8418 40.5707 68.6242 76.2862 106.157 119.222 120.518 109.779 107.658 115.252 114.059 110.329 109.933 103.091 107.911 121.193 134.12 140.768 148.883 159.107 155.826 155.363 149.845 130.27 114.402 97.4633 105.349 106.397 124.974 131.954 131.283 144.747 146.006 149.411 147.984 139.96 156.715 164.139 183.43 195.907 206.399 220.889 219.973 222.947 224.613 208.125 204.452 208.968 234.779 261.654 248.302 240.39 221.392 189.388 167.332 155.105 143.325 109.842 85.549 59.9124 51.1384 69.9265 88.6036 121.829 172.166 192.958 267.673
265.55 0.00025 -25.826 -88.5483 -76.3792 2.78667 19.2167 25.0717 16.5025 6.62311 0.616459 8.59172 5.85814 19.9473 23.9007 23.9153 37.7981 33.0353 38.431 43.0139 34.3943 15.3404 17.1746 19.2031 31.4793 50.3446 38.8902 31.0986 31.3015 30.9809 17.6487 24.3233 17.4547 11.0463 8.65323 15.63 42.1074 70.5548 76.9502 106.426 120.841 122.938 111.957 110.022 117.036 114.413 111.58 110.771 103.891 106.557 120.127 133.024 141.084 148.906 160.462 156.865 157.839 152.111 129.86 114.583 94.6018 102.517 103.716 123.358 132.97 131.665 144.619 146.134 149.792 149.06 141.27 158.259 164.068 183.648 196.962 206.05 220.705 220.764 223.605 227.763 211.158 206.556 208.409 231.343 259.693 249.314 241.653 224.61 191.783 168.389 155.101 143.8 109.593 84.9287 58.8932 49.2272 67.6167 86.6814 119.88 170.693 190.408 265.107
265.5525 0.00025 -26.5042 -92.2477 -81.123 3.98343 19.704 24.927 16.6474 6.58211 1.19106 9.56861 5.4652 22.1181 21.5721 22.375 36.398 29.9024 40.2127 41.364 31.0596 15.7609 18.7147 22.8843 32.2204 51.0018 43.6637 37.7187 38.8799 38.0662 20.6618 26.0789 18.567 11.5281 9.32803 17.0065 43.5532 72.0821 77.0913 106.049 121.664 124.784 113.839 112.157 118.349 114.718 112.459 111.426 104.96 105.423 119.088 131.817 140.767 148.394 161.391 157.253 159.463 154.062 129.856 115.152 92.7346 100.176 101.569 121.991 134.127 132.227 144.213 145.953 149.637 149.452 142.21 159.537 163.782 183.246 197.222 205.3 220.12 221.45 223.937 230.204 213.348 208.009 208.096 228.601 258.115 250.866 243.376 227.976 195.137 170.154 155.368 145.155 110.433 84.9792 58.2547 47.4055 65.1125 84.6724 117.866 169.474 187.913 262.139
265.555 0.00025 -28.2486 -95.3479 -84.9036 5.74359 20.2889 25.1548 16.421 7.1983 2.30335 10.5497 5.24343 24.0284 18.9487 20.7125 34.8905 27.1914 41.7634 39.7306 27.3627 16.3869 20.0973 27.1283 32.7336 50.7764 48.014 43.5513 45.5155 43.9936 22.2898 26.409 18.7367 11.3187 9.33162 17.6308 43.9841 72.5766 76.5176 104.71 121.269 125.598 115.255 113.928 119.577 115.804 114.278 112.549 106.224 104.076 117.893 130.568 140.398 148.043 162.324 157.395 160.306 155.49 129.889 115.761 91.4579 98.0153 99.576 120.646 135.275 133.042 143.719 145.94 149.598 149.571 142.977 160.673 163.956 182.696 196.905 204.079 218.952 221.936 224.282 232.851 216.179 210.067 208.088 226.049 256.125 251.958 245.381 231.439 198.499 172.416 155.347 145.847 111.491 85.4709 58.1795 46.1664 63.0876 83.1445 116.582 169.099 186.111 259.823
265.5575 0.00025 -31.2358 -98.9805 -88.0885 6.51043 20.9262 25.3739 15.4553 8.007 3.41165 11.6346 5.51518 25.7074 16.8011 19.4283 33.298 24.9306 42.8351 38.3574 24.1833 17.2745 21.3765 31.8649 33.2714 50.2297 52.2304 49.0343 51.7797 49.6744 23.6523 26.4829 19.1645 11.3197 9.28093 17.95 43.7309 72.088 75.1255 102.325 119.53 125.233 116.201 115.221 120.24 117.082 116.069 113.862 107.524 102.644 116.563 129.134 139.525 147.522 163.385 158.081 161.327 156.978 130.508 116.136 90.8135 96.2499 97.995 119.412 136.351 134.077 143.335 146.004 149.596 149.727 143.937 161.707 164.392 182.361 196.75 202.999 217.538 221.888 223.966 234.805 218.954 212.407 208.178 223.067 253.174 251.721 246.118 234.342 201.658 174.227 154.806 145.694 112.025 85.672 58.0045 45.1448 61.4916 82.2061 115.956 168.669 184.437 257.788
265.56 0.00025 -35.2842 -102.933 -89.8366 5.59419 21.3365 25.2148 13.9228 8.81936 4.26055 12.1189 5.83935 27.3985 15.2214 18.3841 31.4784 22.9911 43.3751 37.1017 21.8086 18.185 22.5821 36.6795 34.2265 49.8641 56.1601 54.4254 58.0426 55.9064 25.8267 27.2316 20.0781 12.0375 9.49459 18.4539 43.3081 71.2694 73.4811 99.7824 117.394 124.023 116.734 115.865 119.951 117.711 116.738 114.32 108.253 100.663 114.593 127.373 137.987 147.187 164.817 159.748 162.974 158.309 131.9 116.709 90.6919 95.1314 97.2527 118.866 137.64 135.284 142.922 146.253 149.587 149.659 144.687 162.192 164.589 181.715 196.092 201.726 216.054 221.573 223.044 235.547 221.182 214.643 208.586 220.89 250.837 251.651 246.796 236.694 204.355 175.953 154.822 145.901 113.051 86.4742 58.3493 44.6697 60.3091 81.4396 115.253 167.707 182.473 254.449
265.5625 0.00025 -39.8228 -106.925 -89.4566 3.22297 22.1497 25.2055 12.1101 8.97258 4.87732 11.6008 5.90272 28.5811 13.9082 17.5458 29.7391 21.76 43.2237 35.7941 20.5861 19.3221 24.0764 41.5929 35.9913 49.9246 59.9302 59.8891 64.4448 62.4236 28.6743 28.2724 21.1415 13.2068 10.1546 19.7657 43.9445 71.264 72.7772 98.1905 115.633 122.553 117.339 116.188 118.965 117.994 116.811 114.192 108.451 98.0669 111.867 124.896 135.803 146.306 165.76 161.503 164.803 159.45 133.593 117.38 90.428 93.3472 95.9788 118.07 138.849 136.856 142.604 146.6 149.546 149.098 144.49 161.342 163.627 179.945 194.378 199.756 213.981 220.747 221.448 235.379 222.916 216.346 208.948 219.117 248.313 250.873 247.041 238.675 206.332 177.058 155.09 146.709 114.823 87.9562 59.5043 44.8262 59.5065 80.5269 114.146 166.38 180.089 249.656
265.565 0.00025 -44.0203 -110.386 -85.8482 0.00998428 23.2325 25.4745 10.7104 9.13089 5.80608 10.9259 6.3655 29.5339 13.1307 17.2837 28.0458 21.3132 42.9574 34.5253 20.5864 21.0289 26.2108 46.462 39.0237 51.0814 64.1563 65.7399 71.3167 69.1056 32.1412 29.6839 22.4194 14.8459 11.3402 21.5957 44.9887 71.5252 72.2786 96.9603 114.198 121.18 118.469 116.602 117.816 118.423 116.825 113.923 108.425 95.4701 108.881 121.887 132.691 144.637 165.45 162.41 165.97 160.141 134.884 117.142 89.603 90.4917 93.4525 116.204 139.118 138.208 141.953 146.471 149.082 147.905 143.68 159.738 162.187 177.722 192.181 197.484 211.607 219.949 220.355 235.294 224.712 217.584 209.057 216.741 244.839 249.129 245.992 239.425 207.614 177.517 154.669 146.917 116.261 89.1891 60.5132 44.9124 58.8289 79.581 112.78 164.897 177.707 245.155
265.5675 0.00025 -47.387 -111.956 -78.9361 -3.81607 24.3204 26.2254 9.9419 9.19294 6.42367 10.1798 7.17753 29.5683 12.6793 17.2027 25.7456 21.225 42.4151 32.8106 22.0424 23.2753 29.0295 50.8968 42.9045 53.0196 68.7918 72.0463 78.436 75.8377 36.0161 31.2024 23.1666 16.5662 12.7227 23.485 45.8274 71.564 71.716 95.9777 113.187 119.934 119.864 117.096 116.518 118.875 116.803 113.625 108.74 93.6863 106.891 119.379 129.62 142.622 164.197 162.897 166.497 159.653 135.623 115.949 88.4183 87.2007 90.4344 113.751 138.468 139.04 141.219 146.531 149.125 147.019 143.326 158.409 161.457 176.494 190.659 195.777 209.59 219.533 220.177 236.093 227.394 219.386 209.586 214.239 241.257 247.154 244.902 239.999 209.088 178.265 153.979 146.079 116.352 89.4763 60.846 44.5831 57.8312 78.3407 111.143 163.327 175.282 241.171
265.57 0.00025 -50.4246 -110.439 -70.5123 -8.50519 24.9422 27.0891 9.72743 8.8343 6.44369 8.78958 7.57404 27.827 11.8779 17.049 23.0394 20.7611 41.0279 30.1552 23.7474 25.5278 31.8701 54.522 47.3078 55.2994 73.3321 78.0839 85.2241 82.4311 40.307 33.2519 24.2698 18.2102 14.3136 25.1934 46.3886 71.9251 71.6118 95.1827 112.243 118.477 121.364 117.973 115.531 120.005 117.551 114.179 109.807 92.9219 105.822 117.514 127.301 141.349 162.878 163.493 167.002 158.841 136.263 114.665 86.9741 83.962 87.6028 111.598 137.501 139.783 140.697 146.999 150.201 147.441 144.187 158.006 161.542 176.241 190.232 195.38 208.771 219.812 220.416 237.112 231.046 222.854 211.473 212.877 238.213 245.218 244.035 241.002 211.024 179.462 154.031 145.563 116.029 89.0432 60.5704 43.6843 56.1459 76.6933 109.28 161.688 172.829 237.639
265.5725 0.00025 -52.6877 -106.394 -61.7254 -13.9353 24.3287 27.177 9.58063 8.01245 6.20362 7.47036 8.81687 25.4717 11.0148 16.6421 19.7775 19.6964 38.6534 26.1335 25.0266 27.6919 34.5979 57.5399 52.164 58.0102 77.5895 84.3493 91.9199 88.8458 45.1381 35.9181 25.8732 20.4713 16.626 27.0059 47.2584 72.5616 71.9694 94.5252 111.323 116.849 123.044 119.285 115 121.691 118.584 115.005 111.065 93.183 105.859 116.31 125.557 140.914 162.078 164.76 168.316 158.361 137.265 113.583 85.5016 80.9501 85.021 109.558 136.595 140.845 140.461 147.433 151.337 148.256 145.512 157.674 161.539 175.786 189.781 195.365 208.091 219.768 220.043 236.451 232.81 225.236 212.96 211.894 235.567 243.581 243.364 242.24 213.756 181.205 154.844 146.324 116.878 88.9955 60.2348 42.4677 53.9265 74.8968 107.36 160.149 170.445 234.101
265.575 0.00025 -54.1004 -99.8351 -53.4296 -19.0089 22.6926 26.805 9.78471 7.95393 6.37446 7.30066 11.1801 23.2838 11.032 16.3073 16.2415 17.9463 35.1146 21.3509 26.0444 29.8357 37.4457 60.1916 57.3586 61.0929 81.624 91.0758 98.9716 95.3986 51.1705 39.2628 27.5777 23.1096 19.7905 29.3019 48.7429 73.5184 72.6598 94.0613 110.561 115.29 124.616 120.588 114.624 123.328 119.531 115.79 112.5 94.0624 106.132 114.906 123.457 140.099 160.662 165.569 170.097 158.525 138.77 113.2 84.9255 78.8538 82.934 107.727 135.799 142.149 140.416 147.773 152.054 148.517 146.46 157.224 161.265 175.132 188.665 194.945 207.262 219.452 219.747 235.321 233.498 226.445 213.682 210.903 233.485 242.729 243.639 243.758 217.007 184.127 156.315 147.359 118.857 90.2291 60.7835 41.8047 51.9215 73.2602 105.646 159.062 168.501 230.56
265.5775 0.00025 -54.1935 -90.8706 -46.8871 -23.1027 19.6724 26.3753 10.8038 8.61851 6.68301 8.02741 13.9249 21.1291 11.5531 15.7923 12.3072 15.4704 30.7337 15.7909 26.6336 31.8998 40.2093 62.0327 61.8938 64.0139 84.7119 96.6625 105.174 101.644 58.0059 43.414 29.7885 25.5778 23.0731 31.9442 50.3231 74.2831 73.5253 93.7336 110.173 113.907 125.556 121.689 114.238 124.702 120.425 116.662 113.707 94.6419 106.037 113 120.736 138.455 158.322 165.239 170.756 158.221 140.066 113.267 84.7461 77.3091 81.3959 106.35 135.087 143.27 140.225 148.005 152.721 148.63 147.017 156.679 161.2 174.447 186.94 194.042 206.305 219.286 219.941 234.786 234.774 228.483 214.89 209.971 231.198 241.689 244.305 246.057 220.414 187.298 158.273 147.819 120.082 91.3805 61.7278 41.7939 50.6412 72.3976 105.02 159.07 167.455 227.747
265.58 0.00025 -52.9934 -81.9825 -42.4359 -25.8957 15.8606 26.0568 12.9506 10.183 7.28136 9.30482 16.8607 19.1488 11.8897 15.3156 8.65138 12.5954 25.5587 9.35846 26.5106 33.6244 42.8366 62.5767 64.9845 66.26 86.8872 101.063 109.694 106.145 64.1517 47.3534 31.746 27.5822 26.177 34.2157 51.4376 74.7868 74.0639 92.9213 109.303 112.227 125.708 122.378 113.818 125.772 121.751 118.043 114.897 95.1921 106.2 111.162 118.58 136.925 155.703 164.469 170.609 157.421 140.754 113.154 84.597 75.9507 80.2044 105.057 134.362 144.303 140.08 148.226 153.358 148.941 147.646 156.033 160.995 173.685 184.912 192.758 205.208 218.767 219.742 233.754 235.45 230.442 216.281 209.025 228.572 239.953 243.766 247.418 223.625 190.211 159.62 147.862 120.83 92.1261 62.3945 41.8638 49.6898 71.9601 104.858 158.769 166.303 224.965
265.5825 0.00025 -49.9593 -73.7167 -39.4485 -27.6343 11.6163 26.0813 15.3798 11.7213 8.23239 11.3041 20.059 18.0691 11.8213 14.5763 5.37121 9.64237 20.3568 3.33168 26.0405 35.5614 45.5271 62.4511 67.2439 68.3403 89.0222 104.7 113.143 109.024 69.3543 50.5694 33.0668 29.1074 29.3727 36.3243 52.0704 74.796 74.1771 91.3122 107.307 109.95 124.996 122.866 113.809 126.923 123.186 119.717 115.952 95.8721 106.247 109.112 116.596 135.55 153.96 164.405 170.729 156.78 141.173 113.174 84.9621 75.7322 80.2538 104.503 133.96 145.327 140.085 148.557 154.071 149.197 147.997 155.283 160.461 172.786 182.616 190.934 203.685 217.7 218.867 231.623 234.909 231.821 217.71 208.883 227.165 238.635 242.991 248.001 225.937 192.427 161.246 148.474 122.182 93.6048 63.7229 42.5074 49.0533 71.445 104.38 157.892 164.8 221.039
265.585 0.00025 -46.3213 -67.0199 -38.2501 -28.4049 6.95851 26.0794 18.3397 13.4943 10.1434 14.0992 23.0736 17.8783 11.3628 13.4465 2.58438 6.83635 15.0808 -1.30893 25.1539 37.9167 48.4865 62.3158 68.9844 70.6318 91.2586 107.582 116.076 110.912 74.3134 53.9626 34.7413 30.3315 32.4952 38.16 51.79 73.7295 73.3194 88.3846 104.254 106.775 122.819 122.403 113.527 127.436 123.867 120.711 116.414 96.1846 105.848 106.927 114.801 134.196 152.739 164.386 171.391 156.865 142.128 113.974 85.5642 75.7314 80.5527 104.307 133.885 146.626 140.353 148.979 154.751 149.169 147.444 153.702 158.851 170.95 179.638 188.593 201.831 216.184 217.423 229.041 233.736 232.758 218.9 208.849 225.985 236.959 241.538 247.945 227.48 193.553 162.286 149.134 123.857 95.413 65.4766 43.5182 48.6687 70.8198 103.463 156.646 162.904 216.32
265.5875 0.00025 -42.5856 -61.6207 -38.8144 -28.2588 2.05635 26.3798 22.2066 15.5037 13.2946 17.8105 25.9741 18.7377 10.6782 11.6901 0.0500998 4.11604 9.2731 -5.0571 23.3094 40.4809 51.5755 62.6738 70.3172 72.9154 93.3404 109.732 118.96 112.723 79.6338 58.0501 36.9523 31.8827 35.8423 40.1099 51.4248 72.5475 72.3556 85.5038 101.354 103.555 120.051 121.113 112.995 127.132 123.504 120.854 115.943 95.7877 104.919 104.431 113.267 132.676 151.333 163.898 171.852 157.653 142.958 114.483 85.7272 74.6697 79.5112 102.879 132.91 147.505 140.444 149.011 155.014 148.751 146.372 151.655 156.647 168.636 176.448 186.004 199.88 214.772 216.526 227.161 232.682 233.584 219.544 208.265 223.864 234.572 239.263 246.78 228.1 194.145 162.507 148.824 124.543 96.476 66.6684 44.242 48.2781 70.1333 102.218 155.236 160.928 212.003
265.59 0.00025 -39.0757 -57.4764 -40.9231 -28.0064 -2.33751 26.6164 26.1455 16.9005 16.8724 21.4769 28.2646 20.8808 10.2895 9.6563 -1.95178 1.49783 3.21923 -7.3477 21.2079 43.0509 55.1121 64.1665 71.5083 74.9762 95.715 111.533 121.854 114.609 85.0742 62.5323 39.7904 33.5735 39.0595 42.3769 51.6267 71.799 72.2955 83.6751 99.4697 101.66 117.985 119.83 112.714 126.682 123.276 121.226 115.581 95.5531 104.145 101.905 111.6 130.333 149.201 162.866 171.332 157.915 143.084 114.19 85.4243 73.4863 78.3529 100.703 130.871 147.54 140.368 149.159 155.66 148.75 145.7 150.093 154.805 166.929 173.794 183.76 198.368 213.806 216.45 226.338 232.648 235.062 220.488 207.719 221.369 232.131 237.019 245.644 228.609 194.921 162.782 148.185 124.125 96.4699 67.1174 44.5019 47.4377 69.0143 100.643 153.599 158.767 207.848