265.5025 0.00025 4.64285 5.66941 6.68002 7.06594 7.34876 7.52738 7.70777 7.85678 7.97996 8.09072 8.17459 8.25658 8.32754 8.41031 8.49843 8.57721 8.67009 8.76099 8.83222 8.88621 8.96206 9.03553 9.10408 9.17179 9.23811 9.29732 9.3446 9.39575 9.4522 9.50226 9.54941 9.60929 9.66594 9.72498 9.78239 9.8339 9.88769 9.94252 9.99786 10.0439 10.0886 10.1373 10.1864 10.2362 10.2851 10.3278 10.3646 10.4042 10.4504 10.4986 10.5479 10.595 10.6396 10.6877 10.7256 10.7567 10.794 10.8263 10.8575 10.8936 10.9244 10.9645 11.0084 11.0565 11.1013 11.1332 11.1661 11.1915 11.2189 11.253 11.2847 11.3094 11.3392 11.3728 11.4003 11.4203 11.4441 11.4688 11.4941 11.5176 11.5324 11.5491 11.5701 11.5907 11.612 11.6322 11.6473 11.6614 11.674 11.6857 11.6955 11.7048 11.7137 11.7243 11.7329 11.7406 11.7464 11.7514 11.7535 11.7621
265.505 0.00025 4.64238 5.66882 6.67939 7.06594 7.34991 7.52843 7.70853 7.85783 7.98044 8.09016 8.17384 8.256 8.32723 8.41122 8.50047 8.57844 8.66997 8.76118 8.83257 8.88629 8.96265 9.03636 9.10416 9.17088 9.23694 9.29637 9.34372 9.39542 9.45201 9.50188 9.54904 9.60936 9.66615 9.7251 9.7824 9.83372 9.88727 9.94206 9.99775 10.0446 10.0889 10.1369 10.1856 10.2357 10.2853 10.3282 10.3648 10.4043 10.4502 10.4983 10.5476 10.5946 10.6392 10.6872 10.7254 10.757 10.7945 10.8265 10.8575 10.8938 10.9245 10.9646 11.0087 11.0566 11.1012 11.1331 11.166 11.1917 11.2192 11.2532 11.2849 11.3095 11.339 11.3726 11.4003 11.4203 11.4441 11.4686 11.494 11.5178 11.5327 11.5492 11.57 11.5907 11.6121 11.6323 11.6474 11.6615 11.6741 11.6858 11.6957 11.705 11.7139 11.7245 11.7332 11.741 11.7467 11.7517 11.7538 11.7623
265.5075 0.00025 4.64191 5.66826 6.67885 7.06588 7.35098 7.52953 7.70926 7.85881 7.98086 8.08967 8.17319 8.25545 8.327 8.4122 8.50252 8.5797 8.66979 8.76121 8.83288 8.88644 8.96318 9.03722 9.10439 9.17006 9.2357 9.29527 9.3428 9.39512 9.45181 9.50155 9.54875 9.60942 9.66636 9.72519 9.78236 9.83349 9.88684 9.94165 9.99765 10.0452 10.0894 10.1365 10.1849 10.2352 10.2854 10.3287 10.365 10.4043 10.4499 10.4981 10.5474 10.5942 10.6387 10.6867 10.7252 10.7574 10.795 10.8266 10.8576 10.8939 10.9245 10.9648 11.0091 11.0567 11.101 11.1329 11.1659 11.1918 11.2194 11.2534 11.2852 11.3097 11.3389 11.3723 11.4002 11.4204 11.444 11.4684 11.4939 11.5179 11.5329 11.5493 11.5699 11.5907 11.6122 11.6324 11.6475 11.6616 11.6742 11.686 11.6959 11.7052 11.7142 11.7248 11.7335 11.7413 11.7471 11.752 11.754 11.7625
265.51 0.00025 4.64144 5.66775 6.67839 7.06578 7.35195 7.53064 7.70995 7.8597 7.98122 8.08924 8.17265 8.25494 8.32683 8.41324 8.50458 8.58098 8.66957 8.76109 8.83315 8.88667 8.96368 9.03809 9.10476 9.16933 9.23437 9.29403 9.34183 9.39482 9.45158 9.50126 9.54857 9.60948 9.66655 9.72527 9.78226 9.83321 9.88641 9.9413 9.99756 10.0459 10.0899 10.1361 10.1841 10.2346 10.2855 10.3291 10.3652 10.4044 10.4496 10.4978 10.5472 10.5939 10.6383 10.6862 10.725 10.7577 10.7954 10.8267 10.8576 10.8941 10.9246 10.9649 11.0094 11.0568 11.1008 11.1327 11.1657 11.1919 11.2197 11.2536 11.2854 11.3098 11.3388 11.372 11.4001 11.4204 11.444 11.4683 11.4938 11.518 11.5332 11.5494 11.5698 11.5907 11.6123 11.6326 11.6476 11.6617 11.6742 11.6861 11.696 11.7054 11.7144 11.7251 11.7338 11.7417 11.7474 11.7523 11.7543 11.7627
265.5125 0.00025 4.64097 5.66728 6.67801 7.06565 7.35281 7.53176 7.71063 7.8605 7.98151 8.08888 8.17221 8.25448 8.32674 8.41434 8.50661 8.58228 8.66934 8.76084 8.83336 8.88696 8.96413 9.03898 9.10526 9.16869 9.23299 9.29266 9.34084 9.39451 9.45132 9.50103 9.54849 9.60954 9.66672 9.72532 9.78212 9.83289 9.88599 9.94101 9.99747 10.0466 10.0904 10.1357 10.1833 10.2341 10.2856 10.3296 10.3654 10.4044 10.4494 10.4975 10.547 10.5937 10.6378 10.6856 10.7247 10.7581 10.7958 10.8267 10.8577 10.8943 10.9247 10.9651 11.0098 11.0569 11.1006 11.1326 11.1655 11.1921 11.2199 11.2539 11.2857 11.31 11.3387 11.3717 11.3999 11.4205 11.4439 11.4682 11.4937 11.5181 11.5335 11.5495 11.5698 11.5907 11.6125 11.6327 11.6477 11.6618 11.6743 11.6862 11.6962 11.7056 11.7147 11.7253 11.7341 11.742 11.7477 11.7526 11.7545 11.7629
265.515 0.00025 4.64052 5.66686 6.67771 7.0655 7.35357 7.53285 7.71129 7.86119 7.98173 8.0886 8.17189 8.25407 8.32672 8.41547 8.50859 8.58361 8.66911 8.76047 8.83351 8.88733 8.96455 9.03987 9.10588 9.16813 9.23156 9.29118 9.33983 9.39418 9.45101 9.50085 9.54853 9.60958 9.66686 9.72536 9.78192 9.83251 9.88558 9.94079 9.99738 10.0472 10.091 10.1354 10.1825 10.2334 10.2857 10.33 10.3656 10.4045 10.4491 10.4972 10.5468 10.5934 10.6373 10.6849 10.7244 10.7585 10.7962 10.8268 10.8577 10.8945 10.9249 10.9652 11.0101 11.0571 11.1005 11.1324 11.1653 11.1921 11.2202 11.2541 11.2859 11.3102 11.3387 11.3714 11.3998 11.4205 11.4439 11.468 11.4936 11.5182 11.5338 11.5496 11.5697 11.5907 11.6126 11.6328 11.6478 11.6619 11.6744 11.6863 11.6963 11.7058 11.7149 11.7256 11.7344 11.7423 11.748 11.7529 11.7548 11.7632
265.5175 0.00025 4.64007 5.66649 6.6775 7.06534 7.35422 7.53391 7.71194 7.86177 7.98187 8.08837 8.17169 8.25375 8.32679 8.41662 8.5105 8.58495 8.66892 8.75999 8.83359 8.88776 8.96493 9.04075 9.10662 9.16764 9.23008 9.2896 9.33881 9.39382 9.45064 9.50074 9.5487 9.60962 9.66697 9.72537 9.78168 9.8321 9.88518 9.94062 9.9973 10.0478 10.0917 10.1351 10.1817 10.2328 10.2857 10.3305 10.3658 10.4045 10.4488 10.4969 10.5467 10.5933 10.6369 10.6842 10.7241 10.7589 10.7966 10.8268 10.8577 10.8946 10.9251 10.9654 11.0104 11.0572 11.1003 11.1322 11.1651 11.1922 11.2205 11.2543 11.2861 11.3104 11.3387 11.3711 11.3996 11.4206 11.4439 11.4679 11.4935 11.5183 11.5341 11.5498 11.5696 11.5907 11.6127 11.633 11.6478 11.662 11.6745 11.6863 11.6965 11.7061 11.7152 11.7258 11.7347 11.7427 11.7483 11.7532 11.7551 11.7634
265.52 0.00025 4.63964 5.66616 6.67735 7.0652 7.35479 7.53491 7.7126 7.86225 7.98194 8.08821 8.1716 8.25351 8.32694 8.41778 8.51234 8.5863 8.66877 8.75942 8.83359 8.88826 8.96528 9.04161 9.10747 9.16721 9.22857 9.28795 9.33778 9.3934 9.4502 9.5007 9.54899 9.60965 9.66703 9.72537 9.7814 9.83165 9.88479 9.94052 9.99722 10.0484 10.0923 10.1349 10.1809 10.2321 10.2857 10.331 10.366 10.4045 10.4485 10.4967 10.5466 10.5931 10.6364 10.6835 10.7237 10.7592 10.797 10.8269 10.8577 10.8948 10.9253 10.9656 11.0108 11.0573 11.1001 11.132 11.1648 11.1923 11.2207 11.2546 11.2864 11.3107 11.3387 11.3708 11.3994 11.4206 11.4439 11.4678 11.4934 11.5184 11.5344 11.5499 11.5696 11.5907 11.6128 11.6331 11.6479 11.6621 11.6746 11.6864 11.6966 11.7063 11.7154 11.7261 11.735 11.743 11.7486 11.7535 11.7553 11.7636
265.5225 0.00025 4.63923 5.66587 6.67727 7.06509 7.35528 7.53584 7.71324 7.86264 7.98192 8.08809 8.17164 8.25339 8.32718 8.41893 8.51407 8.58767 8.66868 8.75878 8.83351 8.88882 8.9656 9.04243 9.10841 9.16685 9.22704 9.28625 9.33675 9.39292 9.4497 9.50074 9.5494 9.60967 9.66704 9.72534 9.78108 9.83116 9.8844 9.94046 9.99715 10.049 10.093 10.1347 10.1801 10.2314 10.2857 10.3314 10.3663 10.4045 10.4483 10.4964 10.5464 10.593 10.6359 10.6827 10.7233 10.7596 10.7973 10.8269 10.8578 10.895 10.9256 10.9659 11.0111 11.0575 11.0999 11.1317 11.1646 11.1923 11.221 11.2548 11.2866 11.3109 11.3387 11.3705 11.3992 11.4206 11.4439 11.4677 11.4933 11.5184 11.5346 11.5501 11.5695 11.5906 11.6129 11.6332 11.648 11.6622 11.6747 11.6866 11.6968 11.7065 11.7157 11.7263 11.7353 11.7433 11.7489 11.7538 11.7556 11.7638
265.525 0.00025 4.63883 5.66562 6.67723 7.06501 7.35571 7.53667 7.71388 7.86293 7.98181 8.08802 8.17179 8.2534 8.32752 8.42004 8.5157 8.58905 8.66868 8.75809 8.83334 8.88942 8.96591 9.04321 9.10943 9.16655 9.22551 9.28452 9.33572 9.39235 9.44912 9.50085 9.54994 9.60969 9.66701 9.72528 9.78073 9.83065 9.88402 9.94045 9.99708 10.0495 10.0937 10.1347 10.1794 10.2306 10.2856 10.3319 10.3665 10.4045 10.448 10.4961 10.5463 10.5929 10.6354 10.6819 10.7229 10.76 10.7977 10.8269 10.8578 10.8952 10.926 10.9662 11.0114 11.0576 11.0997 11.1315 11.1643 11.1923 11.2213 11.255 11.2868 11.3112 11.3388 11.3702 11.3989 11.4206 11.4439 11.4676 11.4931 11.5184 11.5349 11.5503 11.5695 11.5906 11.613 11.6333 11.6481 11.6623 11.6748 11.6867 11.6969 11.7067 11.7159 11.7266 11.7356 11.7437 11.7493 11.7541 11.7559 11.764
265.5275 0.00025 4.63846 5.66541 6.67723 7.06497 7.35612 7.53742 7.71451 7.86312 7.98161 8.08798 8.17204 8.25356 8.32798 8.4211 8.5172 8.59043 8.66876 8.75738 8.83308 8.89005 8.96622 9.04394 9.11053 9.16631 9.22396 9.28279 9.33469 9.39169 9.44847 9.50103 9.5506 9.60972 9.66692 9.7252 9.78035 9.83013 9.88364 9.94047 9.99703 10.05 10.0945 10.1346 10.1788 10.2298 10.2854 10.3323 10.3667 10.4045 10.4478 10.4958 10.5462 10.5928 10.6348 10.681 10.7225 10.7603 10.798 10.8269 10.8578 10.8953 10.9263 10.9665 11.0116 11.0578 11.0995 11.1313 11.164 11.1923 11.2216 11.2553 11.287 11.3115 11.3389 11.3699 11.3987 11.4206 11.4439 11.4675 11.493 11.5184 11.5352 11.5506 11.5695 11.5905 11.6131 11.6335 11.6481 11.6624 11.675 11.6868 11.697 11.7069 11.7162 11.7269 11.7359 11.744 11.7496 11.7544 11.7561 11.7642
265.53 0.00025 4.63811 5.66524 6.67726 7.06498 7.35651 7.53808 7.71511 7.86323 7.98131 8.08796 8.17239 8.25387 8.32856 8.4221 8.51857 8.5918 8.66894 8.75666 8.83273 8.89071 8.96652 9.04459 9.11167 9.16615 9.22243 9.28107 9.33366 9.39092 9.44775 9.50127 9.55136 9.60975 9.66678 9.72508 9.77996 9.8296 9.88327 9.94052 9.99698 10.0505 10.0952 10.1347 10.1781 10.229 10.2852 10.3327 10.367 10.4045 10.4475 10.4955 10.5461 10.5927 10.6343 10.6801 10.722 10.7606 10.7982 10.8269 10.8578 10.8954 10.9267 10.9668 11.0119 11.0579 11.0993 11.1311 11.1637 11.1923 11.2219 11.2555 11.2872 11.3118 11.3391 11.3696 11.3984 11.4206 11.4439 11.4674 11.4929 11.5184 11.5354 11.5508 11.5695 11.5905 11.6132 11.6336 11.6482 11.6625 11.6751 11.6869 11.6972 11.7071 11.7164 11.7271 11.7362 11.7444 11.7499 11.7547 11.7564 11.7645
265.5325 0.00025 4.63779 5.66509 6.6773 7.06503 7.3569 7.53868 7.71567 7.86325 7.98091 8.08796 8.17284 8.25435 8.32928 8.42303 8.51981 8.59317 8.66922 8.75596 8.83229 8.89137 8.96682 9.04517 9.11285 9.16605 9.22092 9.27938 9.33262 9.39004 9.44696 9.50158 9.55222 9.6098 9.66658 9.72492 9.77955 9.82907 9.8829 9.94058 9.99696 10.0509 10.0959 10.1348 10.1776 10.2282 10.2849 10.3331 10.3672 10.4046 10.4473 10.4952 10.546 10.5927 10.6338 10.6793 10.7215 10.761 10.7985 10.827 10.8578 10.8955 10.9272 10.9672 11.0121 11.0581 11.0991 11.1308 11.1634 11.1922 11.2222 11.2558 11.2874 11.3121 11.3393 11.3693 11.3981 11.4206 11.4439 11.4674 11.4927 11.5184 11.5356 11.551 11.5695 11.5905 11.6133 11.6337 11.6483 11.6626 11.6752 11.687 11.6973 11.7073 11.7166 11.7274 11.7365 11.7447 11.7502 11.755 11.7566 11.7647
265.535 0.00025 4.6375 5.66497 6.67735 7.06511 7.35732 7.53924 7.71619 7.86318 7.98041 8.08796 8.17336 8.25499 8.33012 8.42389 8.52092 8.59451 8.6696 8.7553 8.83178 8.89202 8.96714 9.04567 9.11405 9.16603 9.21944 9.27773 9.33158 9.38906 9.44612 9.50194 9.55316 9.60987 9.66634 9.72472 9.77914 9.82856 9.88254 9.94065 9.99694 10.0513 10.0966 10.1349 10.1771 10.2274 10.2846 10.3334 10.3675 10.4046 10.4471 10.495 10.5459 10.5927 10.6333 10.6783 10.7211 10.7612 10.7987 10.827 10.8578 10.8956 10.9276 10.9676 11.0124 11.0582 11.0989 11.1306 11.1631 11.1922 11.2226 11.2561 11.2876 11.3124 11.3395 11.3691 11.3978 11.4205 11.4439 11.4673 11.4926 11.5183 11.5359 11.5513 11.5695 11.5904 11.6133 11.6338 11.6484 11.6627 11.6753 11.6871 11.6974 11.7074 11.7169 11.7276 11.7368 11.745 11.7505 11.7553 11.7569 11.7649
265.5375 0.00025 4.63724 5.66487 6.67739 7.06521 7.35776 7.53978 7.71664 7.86301 7.97981 8.08797 8.17397 8.2558 8.33111 8.42469 8.52189 8.59581 8.67007 8.7547 8.83119 8.89264 8.96748 9.04608 9.11524 9.1661 9.21801 9.27614 9.33053 9.38796 9.44522 9.50233 9.55419 9.60995 9.66605 9.72447 9.77871 9.82806 9.88219 9.94072 9.99695 10.0516 10.0972 10.1351 10.1767 10.2266 10.2842 10.3336 10.3677 10.4046 10.447 10.4947 10.5458 10.5926 10.6328 10.6774 10.7206 10.7615 10.7989 10.827 10.8578 10.8956 10.9281 10.9681 11.0126 11.0583 11.0987 11.1303 11.1627 11.1921 11.2229 11.2563 11.2877 11.3127 11.3397 11.3688 11.3974 11.4205 11.4439 11.4673 11.4925 11.5182 11.5361 11.5516 11.5695 11.5904 11.6134 11.6339 11.6485 11.6628 11.6754 11.6872 11.6975 11.7076 11.7171 11.7278 11.7371 11.7454 11.7508 11.7556 11.7572 11.7651
265.54 0.00025 4.63702 5.6648 6.67743 7.06533 7.35826 7.54035 7.71702 7.86273 7.97912 8.08797 8.17465 8.25676 8.33224 8.42544 8.52272 8.59708 8.67062 8.75416 8.83055 8.89321 8.96784 9.04643 9.11639 9.16626 9.21666 9.2746 9.32947 9.38677 9.44428 9.50274 9.55527 9.61007 9.66572 9.72418 9.77828 9.82759 9.88184 9.94077 9.99697 10.052 10.0979 10.1353 10.1764 10.2259 10.2838 10.3338 10.3679 10.4047 10.4468 10.4945 10.5457 10.5926 10.6322 10.6765 10.7201 10.7617 10.7991 10.8271 10.8578 10.8956 10.9285 10.9686 11.0129 11.0584 11.0985 11.1301 11.1623 11.192 11.2232 11.2566 11.2879 11.313 11.34 11.3686 11.3971 11.4204 11.4439 11.4672 11.4924 11.5182 11.5362 11.5518 11.5696 11.5903 11.6134 11.634 11.6485 11.6628 11.6756 11.6874 11.6977 11.7078 11.7173 11.7281 11.7374 11.7457 11.7512 11.7559 11.7574 11.7653
265.5425 0.00025 4.63682 5.66474 6.67746 7.06545 7.35879 7.54097 7.71731 7.86234 7.97833 8.08797 8.17541 8.25786 8.33349 8.42615 8.52344 8.59828 8.67124 8.7537 8.82987 8.89372 8.96822 9.0467 9.11749 9.16649 9.2154 9.27311 9.32839 9.38548 9.4433 9.50317 9.55641 9.61021 9.66535 9.72384 9.77784 9.82716 9.88151 9.9408 9.997 10.0522 10.0984 10.1356 10.1761 10.2251 10.2833 10.334 10.3681 10.4047 10.4467 10.4943 10.5456 10.5926 10.6317 10.6756 10.7196 10.7619 10.7993 10.8271 10.8578 10.8956 10.929 10.9691 11.0131 11.0585 11.0984 11.1299 11.162 11.1918 11.2235 11.2569 11.288 11.3133 11.3403 11.3684 11.3968 11.4203 11.4439 11.4672 11.4923 11.5181 11.5364 11.5521 11.5697 11.5903 11.6134 11.6341 11.6486 11.6629 11.6757 11.6875 11.6978 11.708 11.7176 11.7283 11.7377 11.746 11.7515 11.7562 11.7577 11.7655
265.545 0.00025 4.63667 5.66469 6.67748 7.06556 7.35937 7.54168 7.71752 7.86182 7.97747 8.08795 8.17625 8.2591 8.33487 8.42685 8.52404 8.59943 8.67191 8.75333 8.82917 8.89416 8.96862 9.04692 9.11851 9.16682 9.21427 9.27169 9.32728 9.38412 9.44229 9.50359 9.55759 9.61038 9.66496 9.72346 9.7774 9.82677 9.88119 9.9408 9.99705 10.0525 10.099 10.1359 10.1759 10.2245 10.2828 10.334 10.3683 10.4048 10.4467 10.4941 10.5454 10.5926 10.6312 10.6747 10.719 10.762 10.7994 10.8272 10.8578 10.8956 10.9295 10.9697 11.0133 11.0586 11.0982 11.1296 11.1616 11.1917 11.2238 11.2571 11.2881 11.3136 11.3406 11.3683 11.3965 11.4202 11.4439 11.4672 11.4922 11.518 11.5366 11.5524 11.5698 11.5903 11.6135 11.6342 11.6487 11.663 11.6758 11.6876 11.6979 11.7082 11.7178 11.7286 11.738 11.7464 11.7518 11.7565 11.758 11.7658
265.5475 0.00025 4.63654 5.66467 6.67749 7.06565 7.36 7.54249 7.71765 7.86119 7.97653 8.08791 8.17717 8.26046 8.33634 8.42755 8.52455 8.60049 8.67261 8.75303 8.82846 8.89452 8.96904 9.04708 9.11944 9.16722 9.21327 9.27032 9.32613 9.3827 9.44124 9.504 9.55879 9.61057 9.66456 9.72303 9.77695 9.82642 9.88089 9.94077 9.9971 10.0528 10.0995 10.1362 10.1758 10.2238 10.2823 10.334 10.3684 10.4049 10.4466 10.4939 10.5453 10.5925 10.6307 10.6737 10.7185 10.7621 10.7995 10.8272 10.8578 10.8956 10.93 10.9703 11.0136 11.0587 11.0981 11.1294 11.1612 11.1915 11.2241 11.2574 11.2883 11.3139 11.3409 11.3682 11.3961 11.42 11.4439 11.4671 11.4922 11.5179 11.5367 11.5527 11.5699 11.5903 11.6135 11.6343 11.6488 11.6631 11.6759 11.6878 11.698 11.7083 11.718 11.7288 11.7383 11.7467 11.7521 11.7568 11.7582 11.766
265.55 0.00025 4.63646 5.66465 6.67748 7.06572 7.36066 7.54343 7.71771 7.86042 7.97552 8.08784 8.17817 8.26193 8.3379 8.42826 8.52498 8.60147 8.67333 8.75282 8.82777 8.8948 8.96947 9.0472 9.12025 9.16769 9.21243 9.26901 9.32495 9.38124 9.44018 9.50438 9.55999 9.61079 9.66414 9.72257 9.77649 9.82612 9.88059 9.9407 9.99716 10.053 10.0999 10.1365 10.1758 10.2232 10.2818 10.3339 10.3685 10.405 10.4466 10.4937 10.5451 10.5925 10.6302 10.6728 10.718 10.7622 10.7996 10.8273 10.8578 10.8955 10.9305 10.9709 11.0138 11.0588 11.0979 11.1292 11.1608 11.1913 11.2244 11.2577 11.2884 11.3142 11.3413 11.3681 11.3958 11.4199 11.4439 11.4671 11.4921 11.5178 11.5368 11.5529 11.5701 11.5902 11.6135 11.6343 11.6489 11.6632 11.676 11.6879 11.6982 11.7085 11.7182 11.7291 11.7386 11.747 11.7524 11.7571 11.7585 11.7662
265.5525 0.00025 4.63642 5.66465 6.67746 7.06575 7.36135 7.54451 7.7177 7.85953 7.97445 8.08774 8.17926 8.2635 8.33954 8.429 8.52537 8.60235 8.67404 8.75269 8.82711 8.89501 8.96991 9.04728 9.12094 9.16824 9.21175 9.26777 9.32373 9.37976 9.43911 9.50471 9.56119 9.61104 9.66373 9.72207 9.77603 9.82588 9.88032 9.94059 9.99723 10.0532 10.1003 10.1367 10.1758 10.2227 10.2812 10.3337 10.3686 10.4051 10.4467 10.4936 10.5449 10.5925 10.6298 10.6719 10.7174 10.7622 10.7997 10.8274 10.8578 10.8955 10.9309 10.9716 11.0141 11.0588 11.0978 11.129 11.1604 11.191 11.2247 11.258 11.2885 11.3145 11.3416 11.368 11.3955 11.4197 11.4439 11.4671 11.492 11.5177 11.5369 11.5532 11.5702 11.5903 11.6135 11.6344 11.649 11.6632 11.6762 11.6881 11.6983 11.7087 11.7185 11.7293 11.7389 11.7474 11.7528 11.7574 11.7588 11.7664
265.555 0.00025 4.63641 5.66466 6.67742 7.06574 7.36205 7.54571 7.71765 7.85853 7.97332 8.08761 8.18043 8.26516 8.34122 8.42979 8.52572 8.60311 8.67473 8.75262 8.82649 8.89515 8.97035 9.04732 9.12149 9.16884 9.21125 9.26659 9.32245 9.37827 9.43803 9.505 9.56236 9.6113 9.66333 9.72154 9.77557 9.82568 9.88006 9.94044 9.9973 10.0535 10.1007 10.137 10.1759 10.2223 10.2807 10.3335 10.3686 10.4053 10.4467 10.4935 10.5447 10.5924 10.6293 10.6711 10.7169 10.7622 10.7998 10.8275 10.8578 10.8954 10.9314 10.9722 11.0144 11.0589 11.0977 11.1288 11.16 11.1908 11.225 11.2583 11.2886 11.3148 11.342 11.3679 11.3953 11.4195 11.4438 11.4671 11.4919 11.5176 11.537 11.5535 11.5704 11.5903 11.6134 11.6344 11.6491 11.6633 11.6763 11.6882 11.6984 11.7088 11.7187 11.7295 11.7392 11.7477 11.7531 11.7577 11.759 11.7666
265.5575 0.00025 4.63644 5.66469 6.67737 7.06571 7.36274 7.54704 7.71757 7.85742 7.97213 8.08743 8.18169 8.26691 8.34294 8.43063 8.52606 8.60377 8.67539 8.7526 8.82593 8.89525 8.97079 9.04732 9.1219 9.16949 9.21093 9.26547 9.32113 9.3768 9.43694 9.50523 9.56349 9.61157 9.66295 9.72098 9.77509 9.82554 9.87981 9.94024 9.99737 10.0537 10.101 10.1373 10.176 10.2219 10.2801 10.3332 10.3685 10.4054 10.4469 10.4934 10.5444 10.5923 10.6289 10.6702 10.7163 10.7621 10.7998 10.8276 10.8578 10.8954 10.9318 10.9729 11.0147 11.0589 11.0976 11.1287 11.1596 11.1905 11.2252 11.2586 11.2886 11.3151 11.3423 11.3679 11.395 11.4193 11.4438 11.4671 11.4919 11.5175 11.537 11.5537 11.5706 11.5903 11.6134 11.6345 11.6492 11.6634 11.6764 11.6884 11.6986 11.709 11.7189 11.7298 11.7395 11.748 11.7534 11.758 11.7593 11.7669
265.56 0.00025 4.63651 5.66474 6.67731 7.06564 7.36341 7.54847 7.71748 7.85622 7.97089 8.08721 8.18301 8.26874 8.3447 8.43152 8.5264 8.6043 8.67599 8.75264 8.82543 8.89531 8.97122 9.04729 9.12217 9.17019 9.21079 9.26443 9.31976 9.37535 9.43587 9.50539 9.56456 9.61186 9.66259 9.72042 9.7746 9.82545 9.87958 9.94 9.99743 10.0539 10.1013 10.1375 10.1762 10.2216 10.2796 10.3327 10.3685 10.4056 10.447 10.4934 10.5441 10.5922 10.6285 10.6694 10.7157 10.762 10.7999 10.8277 10.8578 10.8953 10.9322 10.9735 11.015 11.059 11.0974 11.1285 11.1592 11.1902 11.2255 11.2589 11.2887 11.3154 11.3427 11.368 11.3947 11.4191 11.4437 11.4671 11.4918 11.5174 11.5371 11.5539 11.5708 11.5904 11.6134 11.6345 11.6492 11.6635 11.6765 11.6885 11.6987 11.7091 11.7191 11.73 11.7397 11.7484 11.7537 11.7583 11.7596 11.7671
265.5625 0.00025 4.63663 5.6648 6.67724 7.06554 7.36404 7.54997 7.71742 7.85497 7.96961 8.08695 8.18439 8.27063 8.34648 8.43247 8.52676 8.60473 8.67653 8.75271 8.82499 8.89535 8.97164 9.04721 9.12231 9.17091 9.21082 9.26345 9.31835 9.37393 9.43482 9.50549 9.56556 9.61214 9.66227 9.71985 9.77411 9.8254 9.87935 9.93971 9.9975 10.0541 10.1015 10.1377 10.1764 10.2214 10.2792 10.3323 10.3683 10.4058 10.4472 10.4934 10.5438 10.5921 10.6282 10.6686 10.7151 10.7618 10.7999 10.8278 10.8577 10.8952 10.9326 10.9742 11.0153 11.059 11.0973 11.1284 11.1588 11.1899 11.2257 11.2592 11.2888 11.3157 11.343 11.368 11.3945 11.4189 11.4436 11.4671 11.4918 11.5173 11.5372 11.5542 11.571 11.5905 11.6134 11.6345 11.6493 11.6636 11.6766 11.6887 11.6988 11.7093 11.7193 11.7303 11.74 11.7487 11.7541 11.7586 11.7598 11.7673
265.565 0.00025 4.63679 5.66488 6.67718 7.06542 7.36461 7.55151 7.7174 7.85368 7.9683 8.08665 8.18582 8.27258 8.34829 8.43349 8.52715 8.60504 8.67699 8.75282 8.82462 8.89539 8.97204 9.04709 9.12232 9.17166 9.21101 9.26256 9.31691 9.37256 9.43379 9.50551 9.56646 9.61242 9.662 9.71928 9.7736 9.8254 9.87915 9.93939 9.99756 10.0543 10.1017 10.1378 10.1767 10.2212 10.2787 10.3317 10.3681 10.4059 10.4475 10.4934 10.5434 10.5919 10.6279 10.6678 10.7145 10.7616 10.7999 10.8279 10.8577 10.8952 10.933 10.9748 11.0157 11.059 11.0972 11.1283 11.1584 11.1896 11.2259 11.2594 11.2889 11.3159 11.3434 11.3681 11.3943 11.4186 11.4435 11.4671 11.4917 11.5172 11.5372 11.5544 11.5712 11.5906 11.6133 11.6345 11.6494 11.6636 11.6767 11.6889 11.699 11.7094 11.7195 11.7305 11.7403 11.749 11.7544 11.7589 11.7601 11.7675
265.5675 0.00025 4.63699 5.66498 6.67712 7.06526 7.36511 7.55304 7.71746 7.85239 7.96695 8.0863 8.18727 8.27457 8.35013 8.43456 8.52756 8.60526 8.67736 8.75295 8.82432 8.89544 8.97243 9.04692 9.12222 9.17241 9.21135 9.26175 9.31545 9.37125 9.4328 9.50545 9.56726 9.61269 9.66178 9.71872 9.77309 9.82543 9.87895 9.93903 9.99762 10.0546 10.1018 10.1379 10.1769 10.2211 10.2783 10.3312 10.3679 10.4061 10.4477 10.4935 10.5431 10.5917 10.6276 10.6671 10.7139 10.7613 10.7999 10.828 10.8577 10.8951 10.9334 10.9754 11.0161 11.059 11.0971 11.1283 11.158 11.1892 11.226 11.2597 11.289 11.3162 11.3437 11.3682 11.3942 11.4184 11.4434 11.4672 11.4916 11.5171 11.5372 11.5546 11.5714 11.5907 11.6133 11.6345 11.6495 11.6637 11.6768 11.689 11.6991 11.7096 11.7197 11.7307 11.7406 11.7494 11.7547 11.7592 11.7604 11.7677
265.57 0.00025 4.63724 5.66512 6.67708 7.06507 7.36553 7.55452 7.71761 7.85113 7.96558 8.08592 8.18875 8.2766 8.35199 8.4357 8.528 8.60539 8.67763 8.7531 8.82411 8.89552 8.97278 9.0467 9.122 9.17316 9.21181 9.26102 9.31397 9.37 9.43186 9.50531 9.56794 9.61294 9.66161 9.71819 9.77257 9.82549 9.87876 9.93865 9.99768 10.0548 10.1019 10.138 10.1772 10.2211 10.2779 10.3305 10.3676 10.4062 10.448 10.4936 10.5427 10.5914 10.6273 10.6664 10.7133 10.761 10.7999 10.8282 10.8576 10.8951 10.9338 10.976 11.0165 11.059 11.097 11.1282 11.1576 11.1889 11.2261 11.26 11.2891 11.3165 11.3441 11.3683 11.394 11.4181 11.4433 11.4672 11.4916 11.5171 11.5373 11.5547 11.5716 11.5908 11.6133 11.6344 11.6495 11.6638 11.6769 11.6892 11.6993 11.7097 11.7199 11.7309 11.7409 11.7497 11.755 11.7595 11.7606 11.7679
265.5725 0.00025 4.63753 5.6653 6.67704 7.06486 7.36587 7.55589 7.71787 7.84993 7.96418 8.08551 8.19023 8.27864 8.3539 8.43692 8.52847 8.60544 8.67779 8.75325 8.82399 8.89561 8.97311 9.04644 9.12169 9.1739 9.21238 9.26038 9.31249 9.36881 9.43098 9.50509 9.56848 9.61317 9.66151 9.71768 9.77204 9.82558 9.87859 9.93824 9.99773 10.055 10.1019 10.138 10.1775 10.2211 10.2776 10.3299 10.3672 10.4064 10.4483 10.4937 10.5422 10.5911 10.6271 10.6657 10.7127 10.7607 10.7999 10.8283 10.8576 10.895 10.9341 10.9766 11.0168 11.0591 11.097 11.1282 11.1573 11.1885 11.2262 11.2602 11.2893 11.3167 11.3444 11.3684 11.3939 11.4178 11.4432 11.4672 11.4915 11.517 11.5373 11.5549 11.5718 11.591 11.6133 11.6344 11.6496 11.6639 11.677 11.6894 11.6994 11.7099 11.7201 11.7312 11.7412 11.75 11.7554 11.7598 11.7609 11.7682
265.575 0.00025 4.63786 5.66553 6.67703 7.06462 7.36611 7.55713 7.71825 7.84883 7.96279 8.08507 8.19169 8.28067 8.35583 8.43821 8.52896 8.60542 8.67784 8.7534 8.82397 8.89573 8.97339 9.04615 9.1213 9.17461 9.21305 9.25984 9.31103 9.3677 9.43016 9.50479 9.56888 9.61337 9.66147 9.7172 9.77151 9.82568 9.87842 9.93781 9.99777 10.0552 10.1019 10.138 10.1778 10.2212 10.2773 10.3292 10.3669 10.4065 10.4487 10.4939 10.5418 10.5907 10.6268 10.6651 10.7121 10.7603 10.7999 10.8284 10.8575 10.895 10.9345 10.9771 11.0173 11.0591 11.0969 11.1282 11.1569 11.1882 11.2263 11.2604 11.2894 11.317 11.3447 11.3686 11.3939 11.4175 11.443 11.4672 11.4915 11.5169 11.5373 11.5551 11.572 11.5912 11.6133 11.6343 11.6496 11.6639 11.6771 11.6896 11.6996 11.71 11.7203 11.7314 11.7415 11.7503 11.7557 11.7601 11.7612 11.7684
265.5775 0.00025 4.63822 5.66582 6.67704 7.06435 7.36627 7.5582 7.71874 7.84785 7.9614 8.08461 8.19313 8.28268 8.35781 8.43958 8.52946 8.60535 8.67778 8.75353 8.82406 8.89588 8.97362 9.04583 9.12084 9.17527 9.21378 9.25938 9.30959 9.36665 9.42941 9.50441 9.56913 9.61353 9.66149 9.71676 9.77098 9.82578 9.87826 9.93737 9.99781 10.0553 10.1019 10.138 10.1781 10.2213 10.277 10.3286 10.3664 10.4066 10.449 10.4941 10.5414 10.5903 10.6266 10.6646 10.7115 10.7599 10.7998 10.8285 10.8574 10.8949 10.9348 10.9777 11.0177 11.0591 11.0968 11.1282 11.1566 11.1878 11.2263 11.2606 11.2895 11.3172 11.345 11.3688 11.3938 11.4173 11.4428 11.4672 11.4914 11.5168 11.5374 11.5552 11.5722 11.5914 11.6134 11.6343 11.6497 11.664 11.6772 11.6897 11.6998 11.7102 11.7205 11.7316 11.7417 11.7507 11.756 11.7604 11.7614 11.7686
265.58 0.00025 4.63862 5.66616 6.67707 7.06406 7.36634 7.55908 7.71932 7.84702 7.96004 8.08414 8.19453 8.28466 8.35982 8.44104 8.52998 8.60524 8.6776 8.75364 8.82428 8.89606 8.97378 9.04549 9.12033 9.17588 9.21455 9.25901 9.3082 9.36568 9.42874 9.50396 9.56922 9.61366 9.66158 9.71637 9.77046 9.82589 9.8781 9.93693 9.99784 10.0555 10.1018 10.1379 10.1784 10.2215 10.2768 10.3279 10.366 10.4067 10.4494 10.4944 10.541 10.5899 10.6264 10.6641 10.7109 10.7595 10.7998 10.8286 10.8574 10.8949 10.9351 10.9782 11.0181 11.0591 11.0967 11.1283 11.1564 11.1874 11.2262 11.2607 11.2897 11.3175 11.3453 11.369 11.3938 11.417 11.4427 11.4673 11.4913 11.5167 11.5374 11.5553 11.5724 11.5915 11.6134 11.6342 11.6497 11.6641 11.6773 11.6899 11.6999 11.7103 11.7207 11.7318 11.742 11.751 11.7563 11.7607 11.7617 11.7688
265.5825 0.00025 4.63905 5.66655 6.67712 7.06375 7.36633 7.55974 7.71998 7.84635 7.95875 8.08366 8.19589 8.28657 8.36187 8.4426 8.53051 8.60508 8.67733 8.75371 8.82463 8.89628 8.97387 9.04514 9.11978 9.17641 9.21534 9.25874 9.30687 9.36479 9.42815 9.50344 9.56915 9.61374 9.66173 9.71603 9.76994 9.826 9.87796 9.93648 9.99786 10.0556 10.1017 10.1379 10.1787 10.2217 10.2766 10.3272 10.3655 10.4068 10.4498 10.4946 10.5405 10.5894 10.6262 10.6636 10.7103 10.759 10.7997 10.8287 10.8573 10.8949 10.9354 10.9786 11.0185 11.0591 11.0966 11.1283 11.1561 11.1871 11.2262 11.2609 11.2899 11.3177 11.3456 11.3692 11.3938 11.4167 11.4425 11.4673 11.4912 11.5166 11.5375 11.5555 11.5726 11.5917 11.6135 11.6341 11.6497 11.6641 11.6774 11.6901 11.7001 11.7105 11.7208 11.7321 11.7423 11.7513 11.7567 11.761 11.762 11.7691
265.585 0.00025 4.63951 5.667 6.67718 7.06342 7.36623 7.5602 7.72069 7.84585 7.95754 8.08318 8.19719 8.28842 8.36395 8.44426 8.53105 8.6049 8.67695 8.75372 8.8251 8.89653 8.97388 9.04479 9.11921 9.17687 9.21613 9.25854 9.30562 9.36397 9.42764 9.50286 9.5689 9.61378 9.66194 9.71573 9.76943 9.82609 9.87781 9.93604 9.99788 10.0557 10.1016 10.1377 10.179 10.2219 10.2764 10.3266 10.365 10.4069 10.4502 10.4949 10.5401 10.5889 10.6259 10.6632 10.7097 10.7586 10.7996 10.8288 10.8572 10.8949 10.9357 10.9791 11.0189 11.0592 11.0965 11.1284 11.1559 11.1867 11.226 11.2609 11.29 11.318 11.3459 11.3695 11.3939 11.4165 11.4423 11.4673 11.4912 11.5165 11.5376 11.5556 11.5728 11.5919 11.6135 11.634 11.6497 11.6642 11.6774 11.6903 11.7003 11.7106 11.721 11.7323 11.7426 11.7516 11.757 11.7613 11.7622 11.7693
265.5875 0.00025 4.64001 5.66749 6.67726 7.06308 7.36606 7.56044 7.72141 7.84553 7.95646 8.08272 8.19842 8.29018 8.36605 8.44602 8.53159 8.6047 8.6765 8.75368 8.82569 8.89683 8.97381 9.04445 9.11863 9.17723 9.2169 9.25843 9.30446 9.36322 9.42722 9.50223 9.56849 9.61378 9.66221 9.71549 9.76894 9.82616 9.87767 9.93561 9.99789 10.0558 10.1014 10.1376 10.1793 10.2221 10.2762 10.326 10.3645 10.407 10.4505 10.4952 10.5397 10.5884 10.6257 10.6627 10.7091 10.7581 10.7995 10.8289 10.8571 10.8949 10.9359 10.9795 11.0193 11.0592 11.0964 11.1285 11.1557 11.1864 11.2259 11.261 11.2902 11.3183 11.3461 11.3697 11.394 11.4163 11.4421 11.4673 11.4911 11.5164 11.5376 11.5558 11.5729 11.5921 11.6136 11.634 11.6497 11.6643 11.6775 11.6904 11.7005 11.7108 11.7212 11.7325 11.7428 11.7519 11.7573 11.7616 11.7625 11.7695
265.59 0.00025 4.64054 5.66803 6.67734 7.06272 7.36583 7.5605 7.72211 7.84535 7.95552 8.0823 8.19959 8.29186 8.36816 8.44787 8.53214 8.60449 8.67597 8.75357 8.82638 8.89718 8.97367 9.04413 9.11805 9.17749 9.21763 9.25838 9.30341 9.36255 9.42687 9.50155 9.56792 9.61372 9.66252 9.7153 9.76848 9.82622 9.87753 9.93518 9.99789 10.0558 10.1012 10.1375 10.1796 10.2223 10.276 10.3254 10.364 10.407 10.4509 10.4955 10.5393 10.5879 10.6254 10.6624 10.7086 10.7576 10.7994 10.8289 10.8571 10.8949 10.9362 10.9799 11.0197 11.0593 11.0963 11.1287 11.1556 11.186 11.2257 11.261 11.2904 11.3185 11.3463 11.3699 11.3941 11.416 11.4418 11.4674 11.491 11.5163 11.5377 11.5559 11.573 11.5923 11.6137 11.6339 11.6497 11.6643 11.6776 11.6906 11.7007 11.7109 11.7213 11.7327 11.7431 11.7523 11.7576 11.762 11.7628 11.7697
265.5925 0.00025 4.64109 5.66862 6.67742 7.06235 7.36554 7.56039 7.72275 7.84531 7.95477 8.08194 8.20067 8.29345 8.37026 8.44981 8.53271 8.60429 8.6754 8.75339 8.82716 8.89757 8.97347 9.04382 9.11747 9.17764 9.21831 9.25839 9.30249 9.36195 9.42659 9.50085 9.56718 9.61362 9.66287 9.71516 9.76804 9.82626 9.87738 9.93478 9.99789 10.0558 10.101 10.1373 10.1799 10.2226 10.2758 10.3248 10.3636 10.407 10.4513 10.4957 10.5389 10.5873 10.6251 10.662 10.708 10.7571 10.7993 10.829 10.857 10.8949 10.9365 10.9802 11.0201 11.0593 11.0962 11.1288 11.1555 11.1857 11.2254 11.261 11.2906 11.3188 11.3465 11.3702 11.3943 11.4158 11.4416 11.4674 11.4909 11.5162 11.5378 11.556 11.5732 11.5925 11.6139 11.6339 11.6497 11.6644 11.6777 11.6908 11.7009 11.7111 11.7215 11.7329 11.7434 11.7526 11.758 11.7623 11.763 11.7699