265.5025 0.00025 0.487695 0.737338 0.92786 0.77431 0.729686 0.67455 0.594285 0.569087 0.571429 0.564268 0.556587 0.545403 0.537556 0.520368 0.530063 0.5542 0.545354 0.525054 0.522913 0.511911 0.489945 0.4601 0.443246 0.424982 0.401569 0.382896 0.366179 0.35822 0.359607 0.351641 0.340681 0.32896 0.325743 0.324874 0.324412 0.326088 0.311444 0.299982 0.279826 0.266965 0.254903 0.233819 0.217724 0.202189 0.191031 0.188883 0.187822 0.190069 0.178877 0.16784 0.165447 0.156042 0.144452 0.13585 0.133982 0.13276 0.136141 0.140158 0.14142 0.137377 0.125038 0.117238 0.111376 0.105247 0.0977325 0.0894101 0.081861 0.0769958 0.0750891 0.0727456 0.0685925 0.0656142 0.0634327 0.0597607 0.0589018 0.0586923 0.0573633 0.0532774 0.047692 0.0440077 0.0434152 0.0432783 0.039822 0.0358193 0.0329105 0.0295399 0.0258777 0.0220942 0.0202934 0.0187401 0.0171734 0.0164436 0.0163543 0.015941 0.0154511 0.0157933 0.0168147 0.0182254 0.019536 0.0217491
265.505 0.00025 0.486946 0.736334 0.926512 0.773731 0.728927 0.674027 0.59413 0.567605 0.570702 0.562945 0.55702 0.54592 0.537585 0.522167 0.531375 0.555114 0.547275 0.526121 0.522187 0.512919 0.492091 0.461335 0.445064 0.427937 0.404133 0.384124 0.366544 0.358082 0.359737 0.352236 0.342619 0.33102 0.326937 0.325396 0.324989 0.326639 0.311611 0.300062 0.280186 0.266263 0.255149 0.234958 0.218225 0.202404 0.191313 0.18899 0.187794 0.190405 0.179571 0.168406 0.165677 0.15678 0.145022 0.136067 0.133687 0.132593 0.136122 0.139967 0.141405 0.137598 0.125817 0.117762 0.111717 0.105903 0.0984056 0.0897695 0.0821348 0.0770497 0.0751678 0.0727413 0.0685847 0.0656647 0.0635441 0.0598235 0.0588702 0.0586107 0.0573808 0.0534116 0.0477736 0.0439643 0.043291 0.0432914 0.0399803 0.0359386 0.0330034 0.0296387 0.0259443 0.0221134 0.0203113 0.0187765 0.0171912 0.0164543 0.0163569 0.0159339 0.0154392 0.0157736 0.0167787 0.0181935 0.0195314 0.0217523
265.5075 0.00025 0.486175 0.735415 0.925293 0.773443 0.728387 0.673145 0.594064 0.566264 0.56981 0.561442 0.557382 0.546674 0.537849 0.524181 0.5326 0.555774 0.549133 0.527287 0.521378 0.513733 0.494246 0.462691 0.447051 0.430893 0.40663 0.38532 0.366954 0.358041 0.359877 0.352728 0.344541 0.333127 0.328125 0.325916 0.325624 0.327207 0.311796 0.300111 0.280545 0.265516 0.255244 0.236133 0.218836 0.202683 0.19155 0.189112 0.187778 0.190696 0.18025 0.169039 0.165877 0.157496 0.145611 0.136293 0.133407 0.132439 0.1361 0.139789 0.141398 0.137755 0.126561 0.118321 0.112066 0.106533 0.0990894 0.0901482 0.082416 0.0771011 0.0752433 0.072749 0.068575 0.0657008 0.063658 0.0599016 0.0588432 0.058532 0.0573878 0.0535389 0.0478705 0.0439298 0.0431664 0.0432875 0.0401383 0.0360604 0.0330972 0.0297371 0.0260154 0.0221348 0.0203259 0.0188137 0.0172101 0.0164656 0.0163598 0.0159272 0.015428 0.0157546 0.016743 0.0181618 0.019527 0.021756
265.51 0.00025 0.485388 0.734587 0.924218 0.773425 0.728084 0.671941 0.594084 0.565117 0.568756 0.559775 0.557622 0.547662 0.538403 0.526383 0.533747 0.556172 0.550899 0.528572 0.520537 0.514341 0.49639 0.464173 0.449219 0.433842 0.409025 0.386498 0.367428 0.358115 0.360027 0.353125 0.346434 0.335276 0.329307 0.326434 0.326316 0.327798 0.312001 0.300135 0.2809 0.264745 0.255178 0.237312 0.219568 0.203036 0.191753 0.18925 0.187775 0.190942 0.180903 0.169738 0.166064 0.158183 0.146217 0.136526 0.133149 0.132299 0.136073 0.139625 0.141406 0.137854 0.127259 0.118912 0.112425 0.107138 0.0997798 0.0905494 0.0827073 0.077152 0.0753126 0.0727684 0.0685655 0.0657247 0.0637714 0.0599949 0.0588219 0.0584564 0.057385 0.0536569 0.0479834 0.0439052 0.043043 0.0432673 0.0402943 0.0361854 0.0331919 0.0298346 0.026091 0.0221587 0.0203373 0.0188514 0.0172303 0.0164773 0.0163631 0.0159207 0.0154176 0.0157362 0.0167077 0.0181302 0.019523 0.0217604
265.5125 0.00025 0.484598 0.73388 0.923292 0.773657 0.728034 0.670465 0.594142 0.56419 0.567557 0.557971 0.557686 0.548843 0.539295 0.528743 0.534816 0.556312 0.552538 0.529975 0.51972 0.514744 0.498501 0.465775 0.451557 0.436788 0.411285 0.387671 0.367984 0.358318 0.36018 0.353442 0.348287 0.337454 0.330483 0.326952 0.327054 0.328417 0.312229 0.300138 0.281244 0.26397 0.254955 0.238462 0.220424 0.203466 0.191931 0.189398 0.187787 0.191147 0.181524 0.1705 0.166251 0.158833 0.146837 0.136765 0.132917 0.132174 0.136035 0.139474 0.141436 0.137902 0.127903 0.119531 0.112798 0.107717 0.100471 0.0909742 0.0830102 0.0772043 0.0753729 0.0727994 0.0685582 0.0657371 0.0638811 0.0601026 0.0588072 0.0583846 0.0573738 0.0537634 0.0481113 0.0438914 0.042922 0.0432315 0.0404464 0.0363144 0.0332872 0.029931 0.0261707 0.0221856 0.0203456 0.0188892 0.0172519 0.0164895 0.0163667 0.0159147 0.0154081 0.0157187 0.0166729 0.0180988 0.0195193 0.0217655
265.515 0.00025 0.483833 0.733288 0.922535 0.774092 0.728239 0.668791 0.594225 0.563508 0.566238 0.556055 0.557545 0.550179 0.540576 0.531234 0.53581 0.556206 0.554015 0.531492 0.518985 0.514945 0.500564 0.467505 0.454034 0.439736 0.413383 0.388842 0.368642 0.35866 0.360328 0.353703 0.350081 0.339652 0.331655 0.327473 0.327829 0.329067 0.312488 0.300128 0.281572 0.263211 0.254583 0.239547 0.221398 0.203981 0.192098 0.189554 0.187814 0.191313 0.182104 0.171317 0.166454 0.159443 0.14747 0.137009 0.132717 0.132066 0.135982 0.139336 0.14149 0.137909 0.128483 0.120171 0.113186 0.108272 0.101159 0.0914228 0.0833271 0.0772606 0.0754217 0.0728402 0.0685542 0.0657407 0.0639838 0.0602236 0.058801 0.0583174 0.0573548 0.0538568 0.0482526 0.0438894 0.0428047 0.0431811 0.0405926 0.0364483 0.0333828 0.0300262 0.0262542 0.0222156 0.0203511 0.0189266 0.0172752 0.0165022 0.0163707 0.0159091 0.0153994 0.0157018 0.0166384 0.0180676 0.0195159 0.0217712
265.5175 0.00025 0.48309 0.732835 0.921975 0.774696 0.728699 0.666994 0.594311 0.563078 0.564822 0.554063 0.557186 0.551608 0.542273 0.53384 0.536728 0.555882 0.55531 0.533108 0.518377 0.514957 0.502563 0.469372 0.456611 0.442688 0.415303 0.390018 0.369422 0.359145 0.360466 0.353927 0.351803 0.341851 0.332822 0.328007 0.328631 0.329749 0.312784 0.300106 0.281876 0.26248 0.254074 0.240531 0.222482 0.204588 0.192269 0.189715 0.187854 0.191441 0.18264 0.172179 0.166686 0.160009 0.148113 0.137256 0.132552 0.131976 0.135912 0.139211 0.141571 0.137886 0.128992 0.120826 0.113595 0.108804 0.10184 0.0918958 0.0836602 0.0773235 0.0754567 0.0728888 0.0685546 0.065737 0.0640777 0.060356 0.0588043 0.0582547 0.0573296 0.0539366 0.0484047 0.043901 0.0426922 0.0431169 0.0407312 0.0365878 0.0334787 0.0301202 0.0263413 0.0222492 0.020354 0.0189632 0.0173001 0.0165154 0.0163751 0.0159038 0.0153914 0.0156857 0.0166043 0.0180364 0.0195127 0.0217774
265.52 0.00025 0.482388 0.732542 0.921608 0.775395 0.729386 0.665159 0.594373 0.562883 0.563333 0.552026 0.556615 0.553063 0.544398 0.536555 0.537568 0.555369 0.556398 0.534798 0.517947 0.514803 0.504486 0.471379 0.459228 0.445651 0.417048 0.391199 0.37034 0.359775 0.360593 0.354132 0.353442 0.34404 0.333984 0.32856 0.329448 0.330455 0.313128 0.300081 0.282147 0.261794 0.253447 0.241387 0.223658 0.205288 0.192459 0.189883 0.187909 0.191535 0.18313 0.173072 0.166957 0.160529 0.148761 0.137506 0.132429 0.131904 0.135821 0.139096 0.14168 0.137843 0.129428 0.121489 0.114025 0.109313 0.102509 0.0923922 0.0840102 0.0773947 0.0754758 0.0729435 0.0685612 0.0657284 0.0641609 0.0604972 0.0588192 0.0581967 0.0572986 0.0540024 0.0485648 0.0439282 0.0425858 0.0430401 0.0408604 0.0367332 0.0335748 0.0302131 0.0264315 0.0222866 0.0203548 0.0189986 0.0173269 0.0165291 0.0163799 0.0158989 0.0153844 0.0156704 0.0165707 0.0180055 0.0195099 0.0217844
265.5225 0.00025 0.481742 0.732426 0.921431 0.776153 0.730284 0.663372 0.59442 0.562903 0.561794 0.54997 0.555854 0.554475 0.546935 0.539392 0.53833 0.554704 0.557274 0.536528 0.51773 0.514509 0.506325 0.473528 0.461838 0.448611 0.418631 0.392386 0.371414 0.36054 0.360707 0.354336 0.354984 0.346203 0.335138 0.329147 0.330274 0.331177 0.313524 0.300057 0.282375 0.261161 0.252723 0.242092 0.224902 0.20609 0.192688 0.190055 0.187975 0.191595 0.183575 0.173985 0.167276 0.161006 0.149413 0.137762 0.13235 0.131851 0.135709 0.138994 0.141817 0.137791 0.129791 0.12215 0.114477 0.109802 0.103162 0.0929109 0.0843793 0.0774781 0.0754799 0.0730017 0.068574 0.0657171 0.0642326 0.0606447 0.0588471 0.0581435 0.0572628 0.0540549 0.0487288 0.0439726 0.0424865 0.0429518 0.0409783 0.0368854 0.0336711 0.0303048 0.0265243 0.022328 0.0203539 0.0190322 0.0173555 0.0165435 0.0163849 0.0158944 0.015378 0.0156557 0.0165375 0.0179748 0.0195074 0.0217918
265.525 0.00025 0.481162 0.732509 0.921458 0.776914 0.731345 0.661712 0.594466 0.563113 0.560236 0.547922 0.554937 0.555782 0.549836 0.542358 0.539024 0.553917 0.557931 0.538252 0.517756 0.514102 0.508079 0.47582 0.464391 0.451548 0.420073 0.393576 0.372649 0.361439 0.360819 0.35456 0.356422 0.348327 0.33628 0.329779 0.331097 0.331904 0.313982 0.300041 0.282553 0.260592 0.251924 0.242632 0.226187 0.206993 0.19297 0.190233 0.188052 0.191625 0.183976 0.174905 0.167648 0.161442 0.150061 0.138021 0.132318 0.131817 0.135577 0.138902 0.14198 0.137738 0.13008 0.122799 0.114955 0.110271 0.103797 0.0934511 0.0847692 0.0775759 0.0754683 0.0730613 0.0685938 0.065705 0.0642924 0.0607952 0.0588891 0.0580961 0.057223 0.054095 0.0488928 0.0440356 0.0423957 0.0428535 0.0410835 0.0370443 0.0337675 0.0303954 0.0266192 0.0223737 0.0203518 0.0190636 0.017386 0.0165583 0.0163903 0.0158902 0.0153725 0.0156419 0.0165047 0.0179443 0.0195052 0.0217998
265.5275 0.00025 0.480658 0.732799 0.921698 0.777643 0.732516 0.66024 0.594546 0.563459 0.558673 0.545908 0.553924 0.556942 0.553029 0.545463 0.539665 0.553044 0.558379 0.539929 0.518035 0.513624 0.509754 0.478251 0.466855 0.454422 0.421411 0.394774 0.374046 0.362459 0.360937 0.354812 0.35775 0.350399 0.337405 0.330467 0.331915 0.332621 0.31451 0.300041 0.282674 0.260088 0.251073 0.242996 0.227479 0.207996 0.193324 0.190415 0.188137 0.191627 0.184337 0.175821 0.16807 0.16184 0.150703 0.138287 0.132334 0.131801 0.135424 0.138819 0.142167 0.137692 0.130302 0.123426 0.115457 0.110722 0.10441 0.0940098 0.0851804 0.0776912 0.0754416 0.0731188 0.0686205 0.0656941 0.06434 0.0609457 0.0589469 0.0580546 0.0571798 0.054124 0.0490528 0.0441183 0.042314 0.0427465 0.0411745 0.0372099 0.0338644 0.0304851 0.0267158 0.0224237 0.020349 0.0190926 0.0174185 0.0165739 0.016396 0.0158864 0.0153677 0.0156289 0.0164724 0.017914 0.0195033 0.0218085
265.53 0.00025 0.480237 0.733326 0.922122 0.778305 0.733729 0.659005 0.594721 0.5639 0.557128 0.543939 0.552867 0.557932 0.556427 0.548705 0.540286 0.552113 0.558636 0.541516 0.518565 0.513115 0.511357 0.480803 0.469211 0.457182 0.422681 0.395984 0.375596 0.363592 0.361074 0.355101 0.358958 0.352405 0.338506 0.331227 0.332728 0.333316 0.315109 0.300067 0.282731 0.259653 0.250195 0.24319 0.228744 0.209091 0.193769 0.190605 0.188229 0.191605 0.18466 0.176727 0.16854 0.162208 0.151336 0.138561 0.132398 0.131802 0.135251 0.138744 0.142375 0.137658 0.130465 0.12402 0.115984 0.111159 0.104999 0.0945846 0.085615 0.0778268 0.0754012 0.073172 0.0686534 0.0656863 0.0643763 0.0610929 0.0590208 0.0580194 0.0571335 0.0541438 0.049205 0.044221 0.042243 0.0426326 0.0412503 0.0373816 0.0339622 0.0305737 0.0268136 0.0224781 0.020346 0.0191186 0.0174528 0.0165902 0.016402 0.0158829 0.0153636 0.0156166 0.0164406 0.0178839 0.0195018 0.0218177
265.5325 0.00025 0.479905 0.734106 0.922711 0.778913 0.734896 0.658061 0.595066 0.564394 0.555611 0.542034 0.551822 0.558752 0.559921 0.552076 0.540926 0.551143 0.558719 0.542973 0.519331 0.51263 0.512894 0.483455 0.471459 0.459768 0.423925 0.397216 0.377287 0.364829 0.36124 0.355438 0.360046 0.354334 0.339585 0.332065 0.333531 0.333975 0.315784 0.300123 0.282725 0.259282 0.249315 0.243224 0.229946 0.210269 0.194323 0.190809 0.188321 0.191561 0.184949 0.177619 0.16905 0.162549 0.151955 0.138848 0.132512 0.131822 0.135063 0.138678 0.1426 0.137641 0.130578 0.124573 0.116534 0.111583 0.105562 0.0951728 0.0860725 0.0779843 0.0753489 0.0732182 0.0686919 0.0656833 0.0644023 0.0612333 0.0591112 0.0579911 0.0570847 0.054156 0.0493465 0.0443432 0.0421842 0.042514 0.0413094 0.0375586 0.0340617 0.0306611 0.0269121 0.0225369 0.0203433 0.0191415 0.0174889 0.0166074 0.0164084 0.0158797 0.0153603 0.015605 0.0164092 0.017854 0.0195006 0.0218274
265.535 0.00025 0.479677 0.735152 0.923454 0.779475 0.735897 0.657393 0.595641 0.564897 0.554146 0.540203 0.550833 0.559426 0.563398 0.555553 0.541633 0.550161 0.558636 0.544277 0.520296 0.512214 0.514373 0.48619 0.473598 0.462113 0.425181 0.398486 0.379097 0.366163 0.361452 0.35583 0.361015 0.356171 0.340637 0.332983 0.334327 0.334588 0.31653 0.300215 0.282661 0.25897 0.248452 0.243107 0.231056 0.211516 0.194998 0.19103 0.188413 0.191498 0.185207 0.178497 0.169593 0.162867 0.152556 0.139148 0.132674 0.13186 0.13486 0.13862 0.142839 0.137641 0.130651 0.125075 0.117104 0.111995 0.106096 0.0957712 0.0865535 0.078166 0.0752879 0.0732557 0.0687351 0.0656864 0.0644189 0.0613648 0.0592179 0.0579709 0.0570335 0.0541623 0.0494754 0.0444833 0.0421386 0.0423924 0.0413512 0.0377396 0.0341639 0.0307474 0.0270111 0.0226 0.0203414 0.0191609 0.0175265 0.0166254 0.0164151 0.0158769 0.0153577 0.0155943 0.0163783 0.0178244 0.0194997 0.0218377
265.5375 0.00025 0.479557 0.736467 0.924339 0.780015 0.736635 0.65701 0.596519 0.565393 0.552757 0.538454 0.549948 0.559996 0.566751 0.559089 0.542446 0.549191 0.558397 0.545405 0.521412 0.511928 0.515805 0.488987 0.475648 0.464168 0.426483 0.399817 0.381002 0.367587 0.361728 0.356281 0.361866 0.357909 0.341662 0.333987 0.335117 0.335148 0.317348 0.300345 0.282544 0.258704 0.247621 0.242858 0.232048 0.212804 0.195807 0.191278 0.188496 0.191421 0.185434 0.17936 0.170159 0.163163 0.153139 0.139464 0.132883 0.131914 0.134646 0.138568 0.143086 0.137661 0.130695 0.125523 0.11769 0.112399 0.106599 0.0963775 0.0870588 0.0783742 0.0752207 0.0732818 0.0687805 0.0656965 0.0644273 0.061485 0.0593408 0.0579593 0.0569802 0.0541644 0.0495901 0.0446387 0.0421081 0.0422703 0.0413755 0.0379226 0.03427 0.0308326 0.0271102 0.0226673 0.0203408 0.0191768 0.0175655 0.0166445 0.0164221 0.0158744 0.0153559 0.0155844 0.0163479 0.0177951 0.0194991 0.0218486
265.54 0.00025 0.479552 0.738073 0.925369 0.780553 0.737016 0.65687 0.597758 0.565885 0.551475 0.536789 0.549193 0.560509 0.569883 0.562627 0.543413 0.548264 0.558017 0.546358 0.522634 0.511817 0.517199 0.491823 0.477609 0.46589 0.427844 0.401228 0.382979 0.369091 0.362078 0.356799 0.362602 0.359531 0.342662 0.335077 0.335905 0.33565 0.318228 0.300512 0.282385 0.258477 0.246839 0.242499 0.232909 0.214114 0.196755 0.191566 0.18857 0.191333 0.185633 0.180212 0.170745 0.163439 0.153701 0.139802 0.133138 0.131984 0.134426 0.138523 0.143339 0.137701 0.130721 0.125912 0.118287 0.112796 0.107071 0.0969876 0.0875877 0.0786108 0.0751507 0.0732943 0.0688268 0.0657147 0.0644291 0.0615922 0.0594784 0.0579575 0.0569248 0.0541635 0.0496904 0.0448056 0.0420936 0.0421497 0.0413817 0.0381052 0.0343815 0.0309168 0.0272092 0.0227387 0.020342 0.0191889 0.0176055 0.0166646 0.0164293 0.0158722 0.0153547 0.0155752 0.016318 0.0177659 0.0194988 0.0218599
265.5425 0.00025 0.479659 0.739955 0.926536 0.781094 0.736979 0.656922 0.599392 0.566386 0.550319 0.535211 0.548578 0.561017 0.57272 0.566095 0.54456 0.547417 0.5575 0.547126 0.523906 0.51193 0.518577 0.494679 0.479483 0.467263 0.429264 0.40274 0.385006 0.370661 0.362517 0.357386 0.363233 0.361026 0.343636 0.336249 0.336693 0.336095 0.319158 0.300716 0.282198 0.25828 0.246116 0.242054 0.233623 0.215418 0.197842 0.191906 0.188629 0.191233 0.185807 0.18105 0.171342 0.16369 0.154241 0.140162 0.133435 0.13207 0.134204 0.138486 0.143592 0.13776 0.130738 0.126243 0.118887 0.11319 0.107511 0.0975972 0.0881393 0.0788768 0.075082 0.0732927 0.0688727 0.0657417 0.064426 0.0616853 0.0596295 0.0579664 0.0568676 0.0541609 0.0497771 0.0449801 0.0420971 0.0420331 0.0413706 0.038285 0.0344997 0.031 0.0273077 0.0228139 0.0203453 0.0191976 0.0176464 0.0166859 0.0164369 0.0158703 0.0153543 0.0155668 0.0162887 0.017737 0.0194989 0.0218718
265.545 0.00025 0.479895 0.742106 0.927865 0.781634 0.736514 0.657075 0.601428 0.56692 0.549322 0.533737 0.548106 0.561568 0.575214 0.569423 0.545905 0.546689 0.556852 0.547711 0.525187 0.512295 0.519956 0.497535 0.481259 0.468293 0.430734 0.404375 0.387065 0.372288 0.363061 0.358048 0.363767 0.362385 0.34459 0.337496 0.337485 0.336489 0.320133 0.300948 0.281993 0.258104 0.245456 0.241545 0.234187 0.216695 0.199058 0.19231 0.188672 0.191124 0.185958 0.181877 0.171952 0.163913 0.154754 0.14055 0.133774 0.132171 0.133985 0.138458 0.143842 0.137838 0.130754 0.126518 0.119483 0.113582 0.107919 0.0982039 0.0887139 0.0791734 0.0750175 0.0732753 0.0689156 0.0657774 0.0644189 0.0617636 0.0597914 0.0579866 0.0568088 0.0541577 0.0498517 0.0451572 0.0421195 0.0419232 0.0413429 0.0384591 0.0346257 0.0310823 0.0274056 0.0228927 0.0203512 0.0192028 0.0176876 0.0167085 0.016445 0.0158687 0.0153545 0.0155591 0.0162598 0.0177083 0.0194993 0.0218842
265.5475 0.00025 0.480258 0.744507 0.929312 0.782141 0.735662 0.657231 0.603854 0.567516 0.548513 0.532389 0.547763 0.562194 0.577336 0.572545 0.54745 0.546119 0.556082 0.548114 0.526436 0.512932 0.521353 0.500365 0.48292 0.469005 0.43223 0.40614 0.389144 0.373956 0.36372 0.358781 0.364219 0.3636 0.345522 0.338814 0.338284 0.33683 0.321135 0.301204 0.281781 0.257941 0.244858 0.240995 0.234603 0.217922 0.200387 0.192794 0.188703 0.191005 0.186088 0.18269 0.172573 0.164105 0.155241 0.14097 0.134151 0.132286 0.133773 0.138439 0.144085 0.137931 0.130778 0.12674 0.120068 0.113975 0.108294 0.0988027 0.0893103 0.0795022 0.0749615 0.0732417 0.0689539 0.0658219 0.0644088 0.0618272 0.0599626 0.0580194 0.0567482 0.0541542 0.0499164 0.045332 0.0421613 0.041822 0.0412996 0.0386243 0.0347607 0.0311641 0.0275025 0.022975 0.0203597 0.0192047 0.0177289 0.0167325 0.0164533 0.0158674 0.0153554 0.0155522 0.0162316 0.0176799 0.0195 0.0218971
265.55 0.00025 0.480766 0.747132 0.930846 0.782607 0.734484 0.657302 0.60661 0.568204 0.547912 0.531188 0.547539 0.562927 0.579077 0.575409 0.549189 0.545732 0.555203 0.548334 0.527629 0.513854 0.522796 0.503144 0.484453 0.469438 0.433716 0.408048 0.391239 0.375655 0.364507 0.359591 0.364601 0.36466 0.346437 0.340198 0.339093 0.337128 0.322155 0.30148 0.281575 0.257794 0.244324 0.240425 0.234875 0.219085 0.201813 0.193372 0.188726 0.190877 0.186201 0.183484 0.17321 0.164264 0.155695 0.141422 0.134564 0.132416 0.133571 0.138432 0.144317 0.138038 0.130814 0.126916 0.120633 0.114368 0.108637 0.0993877 0.0899263 0.0798642 0.0749178 0.0731918 0.068986 0.0658751 0.064397 0.0618764 0.0601404 0.0580652 0.0566866 0.054151 0.0499738 0.0455001 0.0422228 0.0417318 0.0412423 0.0387778 0.0349053 0.0312459 0.0275981 0.0230603 0.0203712 0.0192036 0.0177698 0.0167579 0.0164621 0.0158664 0.0153569 0.0155461 0.0162039 0.0176517 0.0195009 0.0219105
265.5525 0.00025 0.481407 0.749992 0.932468 0.78303 0.733069 0.657178 0.609623 0.569028 0.547549 0.530193 0.547417 0.563768 0.580446 0.577983 0.5511 0.54555 0.554231 0.548377 0.528755 0.515051 0.524306 0.505847 0.485841 0.469637 0.435162 0.410088 0.393354 0.377371 0.365431 0.360477 0.364933 0.36556 0.347333 0.341635 0.339914 0.33739 0.323175 0.301769 0.28138 0.25766 0.243848 0.239857 0.235012 0.220166 0.203309 0.194052 0.188752 0.190739 0.186305 0.184256 0.173866 0.16439 0.156111 0.14191 0.13501 0.132559 0.133385 0.138439 0.144533 0.138157 0.130869 0.12705 0.121172 0.114762 0.108949 0.0999558 0.0905617 0.0802604 0.0748907 0.0731259 0.06901 0.0659359 0.0643844 0.0619123 0.0603223 0.0581248 0.0566242 0.0541481 0.0500266 0.0456572 0.0423036 0.0416553 0.0411729 0.038917 0.0350598 0.0313289 0.0276925 0.0231487 0.0203859 0.0192 0.0178098 0.0167847 0.0164713 0.0158656 0.0153591 0.0155407 0.0161768 0.0176238 0.0195022 0.0219244
265.555 0.00025 0.482174 0.753072 0.934152 0.78341 0.731505 0.656805 0.612781 0.570022 0.547442 0.529437 0.547387 0.564701 0.581459 0.580249 0.553148 0.545572 0.553197 0.548233 0.52982 0.516509 0.525905 0.508444 0.487077 0.469657 0.436543 0.412249 0.395493 0.379102 0.366496 0.361439 0.36523 0.3663 0.348218 0.343119 0.340747 0.337626 0.324182 0.302064 0.2812 0.257543 0.243428 0.239302 0.235027 0.221159 0.20485 0.194835 0.18879 0.190585 0.1864 0.185 0.174545 0.164486 0.156482 0.142433 0.135487 0.132718 0.133217 0.13846 0.144731 0.138285 0.130947 0.127149 0.12168 0.115157 0.109232 0.100502 0.0912125 0.0806907 0.0748831 0.0730446 0.0690244 0.0660035 0.0643718 0.0619363 0.0605056 0.0581983 0.0565615 0.0541452 0.0500779 0.0458001 0.0424019 0.041594 0.0410935 0.0390394 0.0352235 0.0314135 0.0277856 0.0232395 0.0204037 0.0191941 0.0178486 0.0168129 0.0164809 0.015865 0.0153619 0.0155361 0.0161503 0.0175961 0.0195037 0.0219387
265.5575 0.00025 0.483078 0.756351 0.935905 0.783741 0.729873 0.656153 0.615953 0.571225 0.547601 0.528972 0.547453 0.565692 0.582149 0.582218 0.555298 0.545799 0.552129 0.547921 0.530845 0.518203 0.527608 0.510909 0.488157 0.469543 0.437838 0.414499 0.397665 0.380846 0.367702 0.362479 0.365509 0.366877 0.349088 0.344644 0.341593 0.337841 0.325159 0.302361 0.281037 0.25745 0.243058 0.23877 0.234934 0.222059 0.206406 0.195721 0.188856 0.190415 0.186492 0.185708 0.175247 0.164559 0.156803 0.14299 0.135992 0.132894 0.133072 0.138499 0.144908 0.138419 0.131048 0.127222 0.122152 0.115552 0.109489 0.101021 0.0918767 0.0811561 0.0748991 0.0729495 0.0690282 0.0660772 0.0643594 0.0619496 0.0606877 0.0582856 0.0564994 0.0541423 0.05013 0.0459263 0.0425153 0.0415498 0.0410067 0.0391436 0.0353956 0.0315011 0.0278772 0.0233326 0.0204251 0.0191864 0.0178857 0.0168426 0.0164911 0.0158647 0.0153652 0.0155321 0.0161244 0.0175686 0.0195055 0.0219535
265.56 0.00025 0.484119 0.759799 0.937738 0.783997 0.728233 0.655212 0.618995 0.572651 0.548034 0.528848 0.547629 0.566691 0.582545 0.583902 0.557502 0.546212 0.551065 0.547446 0.531856 0.520107 0.529417 0.513219 0.489082 0.469338 0.439036 0.416798 0.399877 0.38261 0.369043 0.363601 0.365784 0.367295 0.349941 0.346198 0.342454 0.338046 0.326094 0.302656 0.280892 0.257387 0.242735 0.238266 0.234752 0.222863 0.207954 0.196703 0.188963 0.190227 0.186585 0.186372 0.175971 0.164618 0.15707 0.143576 0.136522 0.133088 0.132952 0.138556 0.145062 0.138556 0.131177 0.127275 0.122587 0.115945 0.109721 0.101508 0.0925512 0.0816572 0.0749422 0.072842 0.06902 0.0661557 0.0643476 0.0619537 0.0608662 0.0583864 0.0564388 0.054139 0.0501856 0.0460349 0.0426412 0.0415241 0.0409153 0.0392283 0.0355743 0.0315928 0.0279676 0.0234276 0.02045 0.0191774 0.0179209 0.0168735 0.016502 0.0158646 0.0153691 0.0155289 0.0160991 0.0175414 0.0195076 0.0219687
265.5625 0.00025 0.485281 0.763404 0.939673 0.784178 0.726659 0.654029 0.621773 0.574323 0.548765 0.529109 0.54794 0.567642 0.58269 0.585338 0.559708 0.54678 0.550032 0.546817 0.532878 0.522187 0.531321 0.515365 0.489865 0.469078 0.440131 0.419104 0.402134 0.384405 0.370515 0.364808 0.366068 0.367563 0.350779 0.347773 0.34333 0.338247 0.32697 0.302945 0.280768 0.257357 0.24246 0.237793 0.234497 0.223574 0.209471 0.197766 0.18913 0.190025 0.186685 0.18699 0.176714 0.164677 0.157277 0.144186 0.137076 0.133303 0.132862 0.138632 0.145193 0.138695 0.131334 0.127314 0.122983 0.116334 0.109931 0.101962 0.0932317 0.0821946 0.0750157 0.0727233 0.068999 0.0662377 0.0643364 0.0619512 0.0610392 0.0585 0.0563808 0.0541346 0.0502465 0.0461258 0.0427756 0.0415175 0.0408222 0.0392928 0.0357572 0.0316898 0.0280569 0.0235241 0.0204785 0.0191674 0.0179539 0.0169057 0.0165136 0.0158647 0.0153735 0.0155264 0.0160745 0.0175145 0.01951 0.0219844
265.565 0.00025 0.486556 0.767134 0.941739 0.784239 0.725213 0.652638 0.624154 0.576239 0.549802 0.529789 0.548413 0.568484 0.582624 0.586561 0.561876 0.547475 0.549049 0.546056 0.533948 0.524427 0.5333 0.51734 0.490524 0.468797 0.441125 0.421372 0.404438 0.386243 0.372105 0.366105 0.366373 0.367692 0.351601 0.349358 0.34422 0.33845 0.327778 0.303221 0.28066 0.257366 0.24223 0.237351 0.234184 0.224192 0.210936 0.198897 0.18937 0.189814 0.186791 0.187553 0.177467 0.164748 0.157427 0.144814 0.137651 0.133539 0.132804 0.138729 0.145302 0.138833 0.131519 0.127345 0.12334 0.116718 0.110122 0.102379 0.0939129 0.0827682 0.0751223 0.0725959 0.0689642 0.0663219 0.0643254 0.0619436 0.0612052 0.0586256 0.0563262 0.0541287 0.0503142 0.0462001 0.0429146 0.0415306 0.0407305 0.039337 0.0359414 0.0317935 0.0281455 0.0236216 0.0205106 0.019157 0.0179843 0.0169389 0.0165259 0.015865 0.0153784 0.0155246 0.0160505 0.0174878 0.0195126 0.0220005
265.5675 0.00025 0.487941 0.770958 0.943977 0.784163 0.723963 0.651118 0.626038 0.578366 0.551157 0.530914 0.549076 0.569163 0.582387 0.5876 0.56398 0.548265 0.548136 0.54519 0.53508 0.526806 0.53531 0.519146 0.491082 0.468521 0.442016 0.423556 0.406786 0.388147 0.373796 0.367497 0.366711 0.367697 0.352409 0.350941 0.345123 0.338661 0.328508 0.30348 0.280571 0.257416 0.242048 0.236936 0.233828 0.224728 0.212331 0.200078 0.189694 0.189596 0.186908 0.188061 0.178222 0.164844 0.157524 0.145446 0.138241 0.133798 0.132783 0.138845 0.145386 0.138967 0.131733 0.127372 0.123659 0.117094 0.110295 0.102755 0.0945895 0.0833773 0.0752652 0.0724621 0.0689158 0.0664074 0.0643144 0.0619323 0.0613627 0.0587619 0.0562762 0.0541207 0.0503897 0.0462599 0.0430538 0.0415633 0.0406434 0.0393614 0.0361238 0.031905 0.0282334 0.02372 0.0205463 0.0191464 0.0180121 0.016973 0.016539 0.0158656 0.0153839 0.0155234 0.0160272 0.0174614 0.0195154 0.022017
265.57 0.00025 0.489436 0.774839 0.946401 0.783921 0.722952 0.649528 0.627344 0.580654 0.552832 0.532497 0.549954 0.569649 0.582023 0.588479 0.565985 0.549107 0.547299 0.54425 0.536285 0.529322 0.537311 0.52078 0.491568 0.46827 0.442809 0.425618 0.409167 0.390133 0.375576 0.368986 0.367089 0.367598 0.353205 0.35251 0.346037 0.33888 0.32915 0.303721 0.280498 0.25751 0.241918 0.236547 0.233442 0.225192 0.213641 0.201287 0.190108 0.189382 0.187034 0.188513 0.178971 0.164977 0.157574 0.146073 0.138845 0.134085 0.1328 0.138982 0.145449 0.139097 0.131974 0.127402 0.123941 0.117459 0.110453 0.103091 0.095256 0.0840225 0.0754463 0.0723243 0.0688536 0.0664932 0.0643029 0.061919 0.0615106 0.0589072 0.0562324 0.0541103 0.0504735 0.046308 0.0431891 0.0416151 0.0405639 0.0393667 0.0363007 0.0320256 0.0283211 0.023819 0.0205856 0.019136 0.0180371 0.0170076 0.0165531 0.0158663 0.0153897 0.0155229 0.0160047 0.0174353 0.0195185 0.022034
265.5725 0.00025 0.491017 0.778779 0.949044 0.783524 0.722218 0.647926 0.62806 0.583007 0.554823 0.534543 0.551058 0.569933 0.58156 0.589223 0.56787 0.549959 0.54654 0.543285 0.537567 0.531963 0.53927 0.522246 0.492012 0.468061 0.443507 0.427522 0.411565 0.392221 0.377429 0.370579 0.367514 0.367413 0.353992 0.354055 0.346962 0.339115 0.329702 0.303937 0.280443 0.257646 0.241837 0.236182 0.233034 0.225588 0.214859 0.202507 0.190616 0.189182 0.187172 0.188904 0.179701 0.165155 0.157588 0.146684 0.139455 0.1344 0.132861 0.139135 0.14549 0.13922 0.132241 0.127437 0.12419 0.117814 0.110598 0.103384 0.0959051 0.084702 0.0756692 0.0721855 0.0687778 0.0665779 0.0642904 0.0619051 0.0616482 0.0590598 0.056196 0.0540973 0.0505656 0.046348 0.0433164 0.0416847 0.0404952 0.0393551 0.036469 0.0321566 0.0284089 0.0239185 0.0206285 0.0191263 0.0180594 0.0170426 0.0165682 0.0158673 0.015396 0.0155231 0.0159828 0.0174094 0.0195218 0.0220514
265.575 0.00025 0.492666 0.782755 0.951883 0.782959 0.721792 0.64636 0.628212 0.585325 0.557137 0.537053 0.552404 0.570031 0.581029 0.58984 0.569614 0.550785 0.545861 0.542341 0.538928 0.534724 0.541157 0.523547 0.492455 0.467913 0.444118 0.429235 0.413962 0.394428 0.379343 0.372277 0.367997 0.367166 0.354771 0.355562 0.34789 0.339365 0.330159 0.304124 0.280407 0.257825 0.241813 0.235844 0.232613 0.22593 0.215972 0.203717 0.191215 0.189007 0.187322 0.189239 0.180402 0.165382 0.15758 0.147269 0.140065 0.134743 0.132968 0.139307 0.145513 0.139337 0.132532 0.127483 0.124407 0.118156 0.110732 0.103636 0.0965305 0.0854146 0.0759354 0.0720484 0.0686888 0.06666 0.0642765 0.0618917 0.0617754 0.0592176 0.0561679 0.0540811 0.0506655 0.0463832 0.0434321 0.0417704 0.0404396 0.0393284 0.0366253 0.0322986 0.0284972 0.0240185 0.0206745 0.0191176 0.018079 0.0170774 0.0165842 0.0158685 0.0154027 0.015524 0.0159617 0.0173839 0.0195254 0.0220692
265.5775 0.00025 0.494382 0.786705 0.9549 0.782273 0.721646 0.644871 0.627852 0.587485 0.559761 0.540009 0.553982 0.569986 0.580456 0.590343 0.571207 0.551552 0.545263 0.541463 0.540351 0.537578 0.542963 0.52468 0.492927 0.467834 0.444646 0.430739 0.416331 0.396763 0.381301 0.374077 0.368543 0.36688 0.355545 0.357023 0.348817 0.339627 0.330519 0.304276 0.280389 0.258043 0.241841 0.235531 0.232186 0.226227 0.216978 0.204902 0.1919 0.188873 0.187485 0.189516 0.181065 0.165665 0.157565 0.147819 0.140667 0.135118 0.133124 0.139495 0.145521 0.139447 0.132843 0.127544 0.124596 0.118484 0.110857 0.103846 0.0971246 0.0861572 0.0762466 0.071916 0.0685882 0.0667383 0.0642609 0.0618795 0.0618922 0.0593785 0.0561492 0.0540619 0.0507722 0.0464172 0.0435335 0.0418696 0.0403993 0.0392891 0.0367661 0.0324516 0.0285864 0.0241189 0.0207238 0.01911 0.018096 0.0171119 0.0166014 0.01587 0.0154097 0.0155254 0.0159412 0.0173586 0.0195291 0.0220873