265.5025 0.00025 546.928 1428.86 2200.89 1925.37 1793.3 1622.85 1436.7 1263.94 1159.68 1072.87 928.199 832.314 751.514 713.191 709.532 714.447 724.863 686.607 669.598 639.848 622.051 602.416 577.874 549.456 514.863 479.131 450.521 434.077 430.605 414.276 398.564 380.144 381.435 371.109 366.817 378.631 379.335 372.333 351.849 333.844 341.291 340.442 335.228 311.738 287.118 271.737 266.46 264.577 249.41 233.694 224.014 210.523 203.665 198.335 193.995 192.641 184.352 178.576 169.713 167.45 162.748 163.296 163.088 160.739 149.412 143.065 133.525 125.919 121.178 113.253 105.22 104.43 102.623 94.9141 85.0792 79.6385 78.7388 72.2731 65.9818 60.4926 59.2234 59.15 54.7597 48.6849 42.7778 35.5056 29.5243 25.3133 23.1164 20.9009 18.3468 15.7839 14.2238 13.7848 13.4982 13.021 12.1161 11.5261 10.514 8.66965
265.505 0.00025 545.175 1425.09 2199.07 1923.74 1786.48 1616.32 1436.62 1264.4 1154.48 1069.5 928.488 832.832 751.196 714.301 711.266 715.604 723.984 686.579 670.135 640.805 622.685 602.421 578.601 550.962 516.381 479.322 449.823 432.967 431.637 415.133 398.497 379.599 380.431 371.289 366.845 378.265 378.98 371.612 352.5 333.451 341.784 340.917 334.988 311.661 287.623 272.689 266.315 264.498 249.572 234.205 224.309 211.174 204.029 198.338 193.548 192.526 184.354 178.406 169.42 167.4 163.067 163.362 163.431 161.091 149.702 143.401 133.811 126.055 121.441 113.271 105.065 104.22 102.584 94.8877 84.9151 79.5125 78.7304 72.3694 66.0298 60.5116 59.0832 59.0965 54.9911 48.8357 43.0727 35.7191 29.6306 25.3961 23.1744 20.9857 18.3852 15.808 14.2249 13.77 13.4845 13.0094 12.1004 11.5068 10.5111 8.67871
265.5075 0.00025 543.419 1421.72 2198.88 1922.78 1779.89 1609.32 1436.63 1264.98 1149.39 1065.57 928.338 833.335 751.172 715.398 712.882 716.712 722.836 686.704 670.175 641.672 623.528 602.43 579.339 552.46 517.697 479.597 449.115 431.887 432.826 415.958 398.468 379.104 379.342 371.343 366.947 377.992 378.608 370.934 353.131 333.088 342.191 341.363 334.716 311.543 288.087 273.742 266.187 264.324 249.667 234.799 224.618 211.807 204.419 198.365 193.092 192.393 184.322 178.22 169.135 167.339 163.39 163.441 163.77 161.43 149.992 143.734 134.101 126.194 121.674 113.318 104.93 103.997 102.532 94.8706 84.7626 79.397 78.7064 72.4598 66.0813 60.5309 58.9503 59.0334 55.2009 48.9827 43.3601 35.9418 29.7498 25.4798 23.2312 21.0718 18.4262 15.8327 14.227 13.7556 13.4711 12.9977 12.0845 11.4874 10.5081 8.68773
265.51 0.00025 541.645 1418.8 2200.36 1922.46 1773.56 1602.1 1436.79 1265.58 1144.58 1061.16 927.673 833.851 751.572 716.436 714.381 717.769 721.458 686.966 669.763 642.405 624.633 602.454 580.025 553.993 518.753 479.983 448.423 430.888 434.097 416.75 398.492 378.652 378.206 371.242 367.117 377.826 378.212 370.318 353.723 332.777 342.501 341.743 334.427 311.402 288.502 274.885 266.103 264.058 249.693 235.455 224.958 212.412 204.832 198.417 192.639 192.235 184.254 178.015 168.865 167.267 163.71 163.539 164.103 161.756 150.279 144.064 134.394 126.343 121.871 113.39 104.817 103.765 102.465 94.8609 84.6224 79.2934 78.6677 72.541 66.1413 60.5469 58.8235 58.9691 55.3809 49.131 43.6361 36.1724 29.8829 25.5644 23.2877 21.1585 18.4701 15.858 14.23 13.7417 13.458 12.9861 12.0685 11.4678 10.505 8.69669
265.5125 0.00025 539.852 1416.38 2203.28 1922.74 1767.56 1594.81 1437.02 1266.08 1140.14 1056.33 926.441 834.386 752.537 717.383 715.791 718.751 719.887 687.336 668.978 642.962 626.037 602.517 580.602 555.593 519.516 480.484 447.78 430.013 435.363 417.524 398.582 378.233 377.057 370.97 367.34 377.77 377.788 369.773 354.266 332.542 342.709 342.017 334.13 311.257 288.867 276.103 266.091 263.701 249.653 236.151 225.347 212.98 205.267 198.498 192.197 192.045 184.154 177.789 168.615 167.182 164.019 163.66 164.426 162.071 150.565 144.394 134.69 126.504 122.03 113.483 104.728 103.526 102.384 94.8557 84.4951 79.2029 78.6154 72.6104 66.2138 60.5569 58.7013 58.91 55.525 49.2849 43.8977 36.4099 30.0304 25.6498 23.3448 21.2447 18.5173 15.884 14.2339 13.7284 13.4451 12.9746 12.0522 11.4481 10.5018 8.70559
265.515 0.00025 538.075 1414.33 2207.48 1923.53 1761.92 1587.59 1437.08 1266.44 1136.18 1051.17 924.623 834.902 754.184 718.251 717.136 719.608 718.154 687.78 667.935 643.32 627.754 602.646 581.015 557.281 519.997 481.089 447.227 429.294 436.544 418.306 398.742 377.836 375.918 370.529 367.601 377.821 377.335 369.296 354.754 332.399 342.806 342.154 333.832 311.133 289.185 277.374 266.176 263.257 249.556 236.863 225.796 213.505 205.72 198.612 191.776 191.814 184.024 177.543 168.388 167.084 164.309 163.809 164.737 162.372 150.851 144.721 134.987 126.684 122.147 113.593 104.664 103.285 102.287 94.852 84.3816 79.1267 78.5504 72.6657 66.3011 60.5604 58.5828 58.86 55.6297 49.4471 44.142 36.6531 30.1921 25.7365 23.4035 21.3298 18.5681 15.9107 14.2387 13.7156 13.4325 12.9632 12.0357 11.4282 10.4985 8.71444
265.5175 0.00025 536.286 1412.69 2212.68 1924.61 1756.69 1580.47 1436.69 1266.65 1132.7 1045.73 922.232 835.314 756.582 719.107 718.418 720.289 716.283 688.26 666.757 643.47 629.766 602.865 581.235 559.055 520.248 481.761 446.806 428.748 437.571 419.126 398.965 377.458 374.806 369.939 367.881 377.967 376.854 368.883 355.182 332.368 342.793 342.13 333.531 311.051 289.47 278.668 266.38 262.736 249.414 237.565 226.313 213.986 206.186 198.762 191.385 191.533 183.866 177.276 168.189 166.976 164.572 163.987 165.035 162.661 151.137 145.047 135.286 126.884 122.225 113.715 104.627 103.046 102.174 94.8466 84.2825 79.0655 78.4739 72.7053 66.4034 60.5583 58.4676 58.8207 55.6945 49.619 44.3671 36.9008 30.3674 25.8251 23.4646 21.4128 18.6225 15.9383 14.2444 13.7034 13.4201 12.9519 12.0189 11.4082 10.4951 8.72324
265.52 0.00025 534.513 1411.38 2218.55 1925.69 1751.88 1573.46 1435.54 1266.68 1129.74 1040.08 919.311 835.509 759.732 720.056 719.621 720.736 714.297 688.734 665.571 643.422 632.031 603.19 581.251 560.878 520.349 482.455 446.559 428.378 438.397 420.01 399.245 377.093 373.73 369.241 368.155 378.187 376.342 368.526 355.546 332.465 342.669 341.934 333.219 311.033 289.738 279.957 266.719 262.149 249.244 238.231 226.897 214.425 206.661 198.955 191.033 191.196 183.685 176.991 168.018 166.86 164.802 164.192 165.319 162.933 151.427 145.371 135.586 127.108 122.265 113.841 104.617 102.813 102.048 94.8361 84.1982 79.02 78.387 72.7289 66.5192 60.5538 58.3553 58.7905 55.7222 49.8003 44.5719 37.1517 30.5552 25.9168 23.5289 21.4932 18.6807 15.9669 14.2509 13.6917 13.4079 12.9406 12.0019 11.3881 10.4916 8.73197
265.5225 0.00025 532.782 1410.31 2224.67 1926.57 1747.56 1566.6 1433.41 1266.51 1127.27 1034.27 915.956 835.358 763.53 721.237 720.721 720.894 712.197 689.169 664.486 643.207 634.484 603.615 581.082 562.694 520.407 483.132 446.51 428.175 439.007 420.968 399.564 376.746 372.68 368.482 368.403 378.454 375.797 368.219 355.837 332.703 342.436 341.559 332.882 311.097 290.013 281.21 267.2 261.509 249.063 238.843 227.54 214.832 207.138 199.197 190.727 190.796 183.481 176.69 167.874 166.739 164.994 164.426 165.59 163.185 151.723 145.693 135.887 127.355 122.272 113.967 104.634 102.588 101.91 94.8171 84.1285 78.9903 78.2911 72.7366 66.6452 60.5513 58.2461 58.7662 55.7179 49.9892 44.756 37.4044 30.7541 26.0128 23.5966 21.5706 18.7425 15.9966 14.2584 13.6807 13.3959 12.9294 11.9845 11.3678 10.488 8.74064
265.525 0.00025 531.08 1409.54 2230.66 1927.11 1743.87 1559.94 1430.23 1266.08 1125.22 1028.39 912.277 834.779 767.804 722.793 721.697 720.701 709.987 689.534 663.609 642.858 637.029 604.127 580.763 564.436 520.521 483.764 446.663 428.118 439.414 421.998 399.908 376.426 371.647 367.718 368.609 378.729 375.219 367.958 356.048 333.093 342.104 341.013 332.505 311.256 290.323 282.398 267.814 260.837 248.888 239.385 228.228 215.217 207.609 199.492 190.472 190.333 183.253 176.377 167.757 166.616 165.147 164.683 165.85 163.413 152.024 146.014 136.188 127.624 122.249 114.087 104.674 102.376 101.763 94.7873 84.0736 78.9765 78.1877 72.7291 66.7767 60.556 58.1402 58.7429 55.6882 50.1827 44.9198 37.6569 30.9625 26.1144 23.6682 21.6448 18.8079 16.0276 14.2667 13.6703 13.3842 12.9183 11.9669 11.3474 10.4843 8.74924
265.5275 0.00025 529.454 1409.06 2236.12 1927.33 1740.93 1553.59 1426.09 1265.34 1123.51 1022.48 908.418 833.72 772.326 724.846 722.55 720.111 707.668 689.804 663.038 642.427 639.581 604.7 580.351 566.04 520.773 484.35 446.997 428.187 439.648 423.084 400.269 376.147 370.618 366.994 368.765 378.971 374.611 367.735 356.176 333.635 341.683 340.309 332.077 311.513 290.698 283.502 268.543 260.156 248.731 239.854 228.937 215.591 208.066 199.845 190.27 189.808 183 176.057 167.663 166.496 165.262 164.958 166.103 163.613 152.334 146.333 136.491 127.915 122.204 114.194 104.735 102.179 101.608 94.7443 84.0328 78.9783 78.0785 72.708 66.9084 60.5736 58.0384 58.7153 55.6406 50.3769 45.0645 37.9075 31.1789 26.2229 23.7436 21.7158 18.8764 16.0601 14.2759 13.6604 13.3727 12.9073 11.949 11.3269 10.4805 8.75777
265.53 0.00025 527.91 1408.9 2240.68 1927.38 1738.85 1547.7 1421.19 1264.3 1122.03 1016.6 904.518 832.207 776.854 727.475 723.305 719.079 705.241 689.95 662.828 641.979 642.039 605.314 579.908 567.446 521.215 484.915 447.469 428.366 439.752 424.196 400.633 375.929 369.584 366.35 368.864 379.135 373.983 367.544 356.23 334.321 341.197 339.464 331.587 311.859 291.167 284.507 269.355 259.493 248.602 240.256 229.637 215.965 208.504 200.26 190.122 189.227 182.719 175.735 167.592 166.38 165.339 165.241 166.354 163.783 152.652 146.652 136.794 128.222 122.143 114.287 104.813 102.001 101.45 94.6869 84.0054 78.9952 77.9651 72.6749 67.0348 60.609 57.9417 58.6783 55.5825 50.5674 45.1921 38.154 31.4017 26.3394 23.8229 21.7841 18.9477 16.0943 14.2861 13.6512 13.3615 12.8963 11.9309 11.3061 10.4767 8.76623
265.5325 0.00025 526.481 1409.03 2244.05 1927.49 1737.57 1542.43 1415.86 1262.95 1120.65 1010.81 900.699 830.328 781.162 730.7 724.01 717.596 702.72 689.938 663.004 641.605 644.308 605.957 579.499 568.609 521.868 485.499 448.02 428.648 439.769 425.303 400.992 375.784 368.543 365.815 368.91 379.183 373.348 367.377 356.219 335.129 340.671 338.5 331.035 312.274 291.755 285.407 270.207 258.877 248.502 240.605 230.3 216.35 208.918 200.736 190.028 188.599 182.403 175.415 167.54 166.272 165.383 165.526 166.606 163.918 152.975 146.973 137.1 128.543 122.072 114.36 104.903 101.845 101.291 94.6133 83.9897 79.0268 77.8491 72.6316 67.1505 60.666 57.8518 58.6277 55.5203 50.7496 45.3055 38.3941 31.6294 26.4649 23.9061 21.85 19.0212 16.1304 14.2972 13.6426 13.3505 12.8853 11.9124 11.2852 10.4728 8.77461
265.535 0.00025 525.181 1409.57 2246.06 1927.85 1736.94 1537.92 1410.45 1261.3 1119.24 1005.16 897.087 828.231 785.087 734.47 724.739 715.68 700.123 689.735 663.546 641.41 646.307 606.617 579.177 569.507 522.722 486.158 448.589 429.032 439.737 426.372 401.333 375.722 367.506 365.399 368.907 379.085 372.717 367.225 356.168 336.028 340.132 337.441 330.427 312.734 292.48 286.206 271.052 258.336 248.428 240.925 230.896 216.747 209.307 201.272 189.987 187.933 182.05 175.101 167.507 166.173 165.399 165.806 166.861 164.019 153.301 147.298 137.408 128.873 121.997 114.413 104.998 101.714 101.134 94.525 83.9845 79.0722 77.732 72.5805 67.2509 60.7464 57.7709 58.5602 55.4591 50.9188 45.4088 38.6252 31.8604 26.5999 23.9931 21.9143 19.0962 16.1686 14.3093 13.6346 13.3397 12.8743 11.8938 11.2642 10.4688 8.78291
265.5375 0.00025 524.041 1410.43 2246.9 1928.5 1736.74 1534.37 1405.31 1259.39 1117.73 999.735 893.762 826.096 788.538 738.666 725.584 713.377 697.464 689.321 664.392 641.514 647.972 607.293 578.973 570.152 523.737 486.935 449.125 429.516 439.688 427.376 401.646 375.743 366.491 365.101 368.865 378.825 372.109 367.077 356.108 336.979 339.604 336.313 329.779 313.209 293.346 286.917 271.841 257.895 248.376 241.237 231.405 217.155 209.672 201.862 189.995 187.242 181.655 174.797 167.494 166.082 165.391 166.077 167.121 164.088 153.624 147.629 137.719 129.207 121.925 114.444 105.092 101.61 100.979 94.4228 83.988 79.1305 77.6151 72.5232 67.3326 60.8504 57.7018 58.4746 55.402 51.0709 45.5066 38.845 32.0929 26.7449 24.0838 21.9778 19.172 16.2091 14.3224 13.6272 13.3292 12.8632 11.8749 11.2429 10.4646 8.79111
265.54 0.00025 523.034 1411.69 2246.67 1929.31 1736.73 1531.84 1400.73 1257.27 1116.08 994.64 890.758 824.124 791.484 743.117 726.601 710.771 694.749 688.69 665.464 642.018 649.26 607.988 578.902 570.591 524.862 487.855 449.603 430.095 439.644 428.299 401.92 375.845 365.525 364.915 368.793 378.394 371.539 366.923 356.071 337.943 339.104 335.144 329.108 313.667 294.343 287.559 272.526 257.576 248.341 241.565 231.815 217.564 210.015 202.5 190.051 186.538 181.217 174.505 167.498 166 165.364 166.334 167.385 164.126 153.939 147.967 138.035 129.542 121.861 114.453 105.18 101.535 100.83 94.3088 83.9984 79.2011 77.4995 72.4617 67.3935 60.9757 57.6475 58.3713 55.3503 51.2028 45.6037 39.0512 32.3249 26.8999 24.178 22.0414 19.2481 16.2521 14.3367 13.6204 13.319 12.8521 11.8558 11.2214 10.4605 8.79922
265.5425 0.00025 522.173 1413.27 2245.57 1929.98 1736.81 1530.31 1396.91 1254.98 1114.25 989.986 888.066 822.521 793.958 747.621 727.808 707.972 691.998 687.829 666.675 642.983 650.157 608.699 578.957 570.9 526.036 488.909 450.028 430.757 439.622 429.133 402.139 376.023 364.638 364.829 368.702 377.796 371.019 366.748 356.093 338.887 338.64 333.969 328.432 314.087 295.448 288.159 273.069 257.389 248.318 241.928 232.125 217.961 210.338 203.174 190.151 185.83 180.737 174.227 167.52 165.926 165.32 166.576 167.652 164.139 154.24 148.314 138.355 129.874 121.808 114.439 105.255 101.491 100.688 94.1853 84.014 79.2827 77.3861 72.3977 67.4329 61.1185 57.6111 58.2525 55.3035 51.3121 45.7047 39.2424 32.5541 27.065 24.2755 22.106 19.3237 16.2975 14.3522 13.6141 13.3091 12.8408 11.8366 11.1996 10.4562 8.80723
265.545 0.00025 521.49 1415.02 2243.63 1930.17 1737 1529.63 1394.06 1252.57 1112.19 985.843 885.651 821.454 796.042 751.986 729.155 705.105 689.233 686.727 667.949 644.426 650.665 609.416 579.132 571.167 527.202 490.059 450.445 431.479 439.63 429.881 402.292 376.268 363.855 364.827 368.599 377.041 370.566 366.54 356.198 339.784 338.206 332.822 327.766 314.455 296.622 288.743 273.443 257.337 248.309 242.335 232.347 218.326 210.645 203.876 190.294 185.13 180.215 173.963 167.558 165.859 165.261 166.801 167.918 164.132 154.521 148.669 138.684 130.2 121.771 114.404 105.314 101.478 100.553 94.0548 84.0333 79.374 77.2758 72.3324 67.4514 61.2736 57.5953 58.1222 55.2588 51.398 45.8134 39.4177 32.7779 27.2399 24.3762 22.1727 19.3984 16.3455 14.369 13.6084 13.2994 12.8293 11.8172 11.1777 10.4519 8.81515
265.5475 0.00025 520.983 1416.89 2240.82 1929.62 1737.41 1529.57 1392.35 1250.03 1109.88 982.274 883.447 821.022 797.83 756.049 730.544 702.316 686.466 685.384 669.216 646.313 650.813 610.133 579.424 571.478 528.313 491.248 450.917 432.239 439.676 430.551 402.377 376.571 363.196 364.906 368.488 376.145 370.19 366.286 356.405 340.62 337.796 331.734 327.128 314.758 297.824 289.334 273.639 257.409 248.318 242.787 232.503 218.643 210.937 204.593 190.476 184.445 179.655 173.714 167.61 165.8 165.192 167.01 168.18 164.112 154.775 149.031 139.021 130.519 121.752 114.35 105.354 101.496 100.427 93.9198 84.0548 79.4737 77.169 72.2668 67.4513 61.4345 57.6022 57.986 55.2127 51.4612 45.9324 39.5772 32.9936 27.4242 24.4797 22.2423 19.4716 16.3961 14.3873 13.6033 13.2901 12.8177 11.7977 11.1554 10.4474 8.82297
265.55 0.00025 520.677 1418.79 2236.95 1928.17 1738.24 1529.87 1391.82 1247.42 1107.27 979.285 881.416 821.278 799.405 759.713 731.836 699.729 683.69 683.817 670.41 648.566 650.657 610.834 579.847 571.898 529.334 492.42 451.518 433.022 439.755 431.161 402.397 376.913 362.678 365.063 368.37 375.123 369.898 365.98 356.717 341.387 337.405 330.726 326.533 314.998 299.01 289.948 273.663 257.586 248.355 243.276 232.623 218.895 211.212 205.316 190.694 183.783 179.063 173.481 167.67 165.748 165.111 167.205 168.432 164.086 154.998 149.399 139.371 130.83 121.752 114.279 105.373 101.541 100.31 93.7828 84.0775 79.5805 77.0663 72.2019 67.4353 61.5947 57.6332 57.8501 55.1601 51.5038 46.0622 39.7219 33.1986 27.617 24.5858 22.3159 19.5431 16.449 14.4071 13.5987 13.2811 12.8059 11.7781 11.133 10.4429 8.8307
265.5525 0.00025 520.538 1420.82 2231.95 1925.93 1739.64 1530.32 1392.4 1244.83 1104.35 976.859 879.543 822.191 800.838 762.928 732.887 697.46 680.917 682.054 671.492 651.089 650.286 611.493 580.418 572.463 530.246 493.53 452.308 433.823 439.867 431.731 402.369 377.273 362.313 365.303 368.243 373.997 369.691 365.622 357.125 342.088 337.024 329.813 325.997 315.177 300.138 290.589 273.54 257.84 248.431 243.789 232.74 219.073 211.469 206.034 190.945 183.152 178.443 173.262 167.735 165.704 165.023 167.384 168.673 164.059 155.186 149.769 139.736 131.13 121.771 114.192 105.369 101.612 100.204 93.6454 84.1006 79.6928 76.9679 72.1379 67.4071 61.7473 57.6887 57.7214 55.0961 51.5296 46.2019 39.8538 33.3908 27.817 24.6946 22.3941 19.6126 16.504 14.4286 13.5947 13.2725 12.7938 11.7584 11.1102 10.4382 8.83832
265.555 0.00025 520.559 1423.03 2225.69 1923.04 1741.63 1530.85 1393.94 1242.32 1101.18 974.992 877.858 823.671 802.143 765.712 733.597 695.569 678.15 680.143 672.452 653.741 649.799 612.084 581.174 573.194 531.037 494.559 453.32 434.651 440.004 432.28 402.314 377.624 362.104 365.635 368.106 372.782 369.559 365.222 357.607 342.732 336.652 328.998 325.536 315.302 301.176 291.247 273.308 258.14 248.556 244.308 232.886 219.175 211.698 206.739 191.226 182.556 177.801 173.058 167.798 165.668 164.928 167.547 168.898 164.038 155.336 150.137 140.117 131.421 121.812 114.094 105.343 101.704 100.108 93.5092 84.1243 79.8091 76.874 72.0749 67.3709 61.8863 57.7683 57.6062 55.0152 51.5425 46.3486 39.9755 33.5686 28.0223 24.8059 22.4775 19.6801 16.561 14.4521 13.5913 13.2641 12.7814 11.7386 11.0872 10.4335 8.84583
265.5575 0.00025 520.755 1425.48 2218.19 1919.79 1744.19 1531.49 1396.07 1239.92 1097.92 973.631 876.412 825.563 803.331 768.11 733.906 694.08 675.411 678.129 673.313 656.377 649.307 612.579 582.145 574.079 531.713 495.507 454.565 435.527 440.16 432.82 402.251 377.94 362.05 366.067 367.957 371.494 369.486 364.8 358.13 343.328 336.291 328.278 325.163 315.383 302.103 291.902 273.015 258.456 248.74 244.815 233.087 219.208 211.893 207.423 191.534 182.005 177.144 172.865 167.854 165.637 164.832 167.694 169.105 164.027 155.446 150.498 140.517 131.703 121.873 113.985 105.295 101.815 100.025 93.3751 84.1487 79.928 76.7849 72.0129 67.3304 62.0065 57.8706 57.5099 54.9142 51.547 46.4985 40.0905 33.731 28.2305 24.9201 22.5665 19.746 16.6195 14.4776 13.5885 13.2561 12.7687 11.7189 11.064 10.4286 8.85323
265.56 0.00025 521.125 1428.18 2209.68 1916.35 1747.17 1532.31 1398.34 1237.6 1094.77 972.73 875.294 827.681 804.39 770.165 733.812 692.966 672.728 676.074 674.122 658.845 648.897 612.968 583.351 575.096 532.293 496.394 456.03 436.48 440.329 433.364 402.198 378.195 362.145 366.6 367.803 370.143 369.45 364.384 358.648 343.892 335.952 327.644 324.889 315.429 302.911 292.523 272.711 258.759 248.986 245.295 233.359 219.19 212.042 208.077 191.865 181.502 176.478 172.68 167.898 165.609 164.738 167.822 169.296 164.028 155.518 150.847 140.936 131.977 121.954 113.87 105.225 101.939 99.9541 93.2432 84.1744 80.0485 76.7005 71.9518 67.2894 62.1041 57.9935 57.4365 54.7914 51.547 46.6469 40.2024 33.8781 28.4387 25.0374 22.661 19.8107 16.6791 14.5053 13.5862 13.2484 12.7557 11.6991 11.0404 10.4237 8.86051
265.5625 0.00025 521.655 1431.13 2200.57 1912.9 1750.36 1533.3 1400.33 1235.25 1091.98 972.231 874.59 829.842 805.3 771.92 733.376 692.165 670.153 674.017 674.921 661.02 648.616 613.269 584.794 576.205 532.803 497.236 457.692 437.536 440.522 433.909 402.167 378.37 362.381 367.23 367.65 368.741 369.418 364.007 359.121 344.435 335.645 327.084 324.722 315.448 303.597 293.081 272.444 259.03 249.293 245.738 233.706 219.148 212.139 208.692 192.217 181.054 175.812 172.499 167.926 165.582 164.648 167.932 169.468 164.044 155.553 151.181 141.374 132.247 122.055 113.752 105.135 102.073 99.8962 93.1135 84.202 80.1695 76.6209 71.8912 67.2507 62.1769 58.1343 57.388 54.6474 51.5451 46.7892 40.3149 34.0103 28.644 25.158 22.7607 19.8747 16.7394 14.5353 13.5846 13.241 12.7423 11.6794 11.0167 10.4186 8.86767
265.565 0.00025 522.351 1434.3 2191.2 1909.52 1753.59 1534.39 1401.68 1232.79 1089.78 972.101 874.375 831.876 806.046 773.374 732.729 691.582 667.729 671.991 675.727 662.821 648.465 613.529 586.456 577.369 533.275 498.053 459.523 438.716 440.762 434.449 402.162 378.452 362.751 367.942 367.509 367.299 369.359 363.702 359.506 344.964 335.39 326.583 324.662 315.45 304.169 293.547 272.25 259.259 249.654 246.139 234.121 219.109 212.179 209.258 192.585 180.669 175.153 172.317 167.936 165.55 164.567 168.022 169.622 164.077 155.552 151.494 141.828 132.517 122.174 113.634 105.025 102.215 99.8515 92.9855 84.2316 80.2903 76.5459 71.8308 67.2166 62.2246 58.2895 57.3642 54.4854 51.5424 46.9214 40.4317 34.1287 28.8436 25.282 22.8651 19.939 16.7998 14.5679 13.5836 13.234 12.7286 11.6596 10.9926 10.4134 8.87469
265.5675 0.00025 523.209 1437.56 2182.08 1906.18 1756.71 1535.39 1402.11 1230.1 1088.28 972.34 874.682 833.678 806.611 774.499 732.049 691.105 665.517 670.018 676.512 664.234 648.404 613.81 588.308 578.557 533.737 498.856 461.505 440.03 441.077 434.972 402.184 378.436 363.25 368.709 367.392 365.836 369.245 363.491 359.775 345.482 335.201 326.131 324.702 315.444 304.634 293.903 272.154 259.443 250.061 246.494 234.59 219.105 212.162 209.763 192.967 180.35 174.509 172.128 167.926 165.511 164.499 168.093 169.756 164.125 155.518 151.784 142.295 132.793 122.31 113.518 104.898 102.361 99.8193 92.8588 84.2645 80.4105 76.4752 71.7703 67.1883 62.2483 58.4553 57.3632 54.3109 51.5387 47.0399 40.5563 34.2344 29.0348 25.4092 22.9734 20.0046 16.8598 14.603 13.5834 13.2272 12.7145 11.6399 10.9683 10.4082 8.88159
265.57 0.00025 524.2 1440.79 2173.59 1902.97 1759.64 1536.02 1401.49 1227.13 1087.49 972.975 875.538 835.196 806.978 775.267 731.533 690.617 663.596 668.105 677.204 665.301 648.369 614.167 590.312 579.741 534.207 499.65 463.627 441.476 441.501 435.467 402.228 378.326 363.871 369.5 367.31 364.372 369.054 363.389 359.913 345.99 335.093 325.724 324.824 315.443 305 294.14 272.168 259.589 250.503 246.807 235.091 219.162 212.097 210.196 193.356 180.103 173.891 171.926 167.894 165.46 164.445 168.145 169.87 164.188 155.457 152.048 142.77 133.079 122.464 113.409 104.754 102.509 99.7992 92.7329 84.3013 80.53 76.4082 71.7095 67.1661 62.251 58.6274 57.3813 54.1315 51.532 47.142 40.6919 34.3289 29.2159 25.5393 23.0844 20.0726 16.919 14.6409 13.584 13.2206 12.7001 11.6202 10.9438 10.4027 8.88835
265.5725 0.00025 525.252 1443.96 2166.19 1899.82 1762.33 1536.04 1399.77 1223.91 1087.38 974.055 876.929 836.446 807.122 775.633 731.357 690.052 662.039 666.276 677.682 666.086 648.304 614.629 592.419 580.911 534.704 500.43 465.881 443.05 442.072 435.918 402.283 378.135 364.604 370.279 367.27 362.933 368.768 363.391 359.926 346.48 335.074 325.371 325.003 315.457 305.27 294.257 272.292 259.708 250.968 247.082 235.605 219.298 211.996 210.543 193.751 179.93 173.306 171.706 167.84 165.396 164.403 168.181 169.96 164.264 155.374 152.281 143.246 133.381 122.632 113.308 104.596 102.656 99.7902 92.6072 84.3426 80.6488 76.3446 71.6482 67.1497 62.237 58.8013 57.414 53.9559 51.5197 47.2262 40.8412 34.4135 29.3854 25.6717 23.1971 20.144 16.9769 14.6814 13.5855 13.2143 12.6853 11.6006 10.9191 10.3972 8.89497
265.575 0.00025 526.316 1446.99 2160.1 1896.7 1764.83 1535.2 1396.96 1220.47 1087.89 975.631 878.819 837.48 807.011 775.598 731.639 689.42 660.888 664.544 677.823 666.66 648.168 615.188 594.579 582.061 535.244 501.197 468.253 444.737 442.823 436.313 402.342 377.886 365.434 371.012 367.274 361.55 368.381 363.481 359.831 346.942 335.142 325.091 325.203 315.498 305.448 294.268 272.514 259.814 251.447 247.321 236.113 219.523 211.878 210.796 194.146 179.829 172.765 171.465 167.766 165.316 164.374 168.203 170.025 164.35 155.275 152.484 143.716 133.705 122.817 113.218 104.427 102.8 99.7905 92.4816 84.3887 80.7674 76.2838 71.5863 67.138 62.2111 58.9724 57.4562 53.7932 51.4984 47.2914 41.006 34.4897 29.5428 25.8054 23.3102 20.2201 17.0332 14.7246 13.5879 13.2082 12.6701 11.581 10.8941 10.3915 8.90145
265.5775 0.00025 527.408 1449.66 2155.43 1893.7 1767.14 1533.4 1393.16 1216.89 1088.94 977.727 881.125 838.381 806.6 775.213 732.4 688.81 660.136 662.935 677.501 667.077 647.955 615.815 596.725 583.179 535.842 501.953 470.72 446.519 443.789 436.646 402.398 377.613 366.342 371.671 367.319 360.254 367.899 363.627 359.659 347.365 335.291 324.908 325.394 315.57 305.536 294.194 272.816 259.922 251.932 247.531 236.601 219.837 211.766 210.945 194.54 179.797 172.274 171.199 167.673 165.219 164.352 168.213 170.063 164.443 155.166 152.654 144.172 134.054 123.017 113.143 104.249 102.938 99.7987 92.3556 84.4397 80.8864 76.2253 71.5239 67.1293 62.1791 59.1362 57.5031 53.6516 51.4648 47.3375 41.1872 34.5592 29.6877 25.9398 23.4224 20.3016 17.0879 14.7703 13.5915 13.2023 12.6546 11.5615 10.869 10.3857 8.90778
265.58 0.00025 528.5 1451.94 2152.35 1890.93 1769.38 1530.73 1388.56 1213.2 1090.43 980.334 883.763 839.206 805.865 774.559 733.567 688.365 659.749 661.469 676.624 667.381 647.664 616.478 598.782 584.244 536.515 502.716 473.24 448.382 444.987 436.91 402.446 377.35 367.306 372.232 367.399 359.077 367.331 363.792 359.444 347.739 335.512 324.849 325.545 315.674 305.537 294.058 273.177 260.05 252.415 247.714 237.058 220.23 211.686 210.991 194.927 179.828 171.844 170.906 167.563 165.106 164.333 168.216 170.071 164.538 155.055 152.791 144.605 134.43 123.233 113.083 104.067 103.069 99.8131 92.2299 84.4953 81.0064 76.1688 71.4611 67.1216 62.1464 59.2887 57.5507 53.5379 51.4164 47.3652 41.384 34.6245 29.8201 26.0738 23.5323 20.3892 17.1408 14.8185 13.5963 13.1965 12.6388 11.542 10.8437 10.3797 8.91395
265.5825 0.00025 529.584 1453.76 2150.88 1888.5 1771.59 1527.39 1383.38 1209.44 1092.21 983.417 886.643 839.976 804.807 773.753 735.006 688.246 659.669 660.143 675.165 667.6 647.303 617.163 600.667 585.224 537.281 503.515 475.759 450.307 446.428 437.109 402.489 377.129 368.297 372.678 367.509 358.044 366.696 363.94 359.214 348.057 335.789 324.933 325.642 315.796 305.466 293.887 273.575 260.209 252.891 247.874 237.483 220.689 211.656 210.936 195.304 179.913 171.481 170.585 167.438 164.979 164.311 168.212 170.048 164.63 154.948 152.896 145.008 134.836 123.468 113.04 103.885 103.189 99.8314 92.1048 84.555 81.1282 76.1139 71.3982 67.1129 62.118 59.4262 57.596 53.4564 51.3516 47.3758 41.5938 34.6886 29.9402 26.2068 23.6389 20.4832 17.1922 14.8688 13.6025 13.1909 12.6226 11.5225 10.8183 10.3736 8.91996
265.585 0.00025 530.63 1455.23 2151.12 1886.57 1773.68 1523.74 1377.88 1205.64 1094.13 986.919 889.676 840.679 803.452 772.887 736.575 688.573 659.869 658.924 673.162 667.712 646.888 617.858 602.304 586.073 538.153 504.391 478.204 452.284 448.111 437.246 402.539 376.981 369.29 373.003 367.646 357.175 366.012 364.041 358.988 348.322 336.101 325.17 325.687 315.912 305.333 293.703 273.992 260.407 253.351 248.016 237.872 221.197 211.694 210.792 195.664 180.046 171.188 170.239 167.299 164.84 164.28 168.204 169.993 164.716 154.851 152.97 145.373 135.269 123.724 113.016 103.707 103.295 99.8518 91.9815 84.6182 81.2522 76.0607 71.3354 67.1013 62.0981 59.5459 57.6376 53.4085 51.2702 47.3713 41.8124 34.7555 30.0481 26.3383 23.7411 20.5835 17.2425 14.921 13.6101 13.1853 12.6061 11.5031 10.7927 10.3673 8.92582
265.5875 0.00025 531.671 1456.37 2153.03 1885.28 1775.62 1520.16 1372.24 1201.89 1095.98 990.778 892.793 841.287 801.865 772.029 738.124 689.421 660.332 657.765 670.719 667.655 646.473 618.556 603.636 586.747 539.142 505.387 480.502 454.308 450.02 437.327 402.611 376.924 370.256 373.205 367.811 356.484 365.3 364.07 358.77 348.54 336.423 325.556 325.695 315.995 305.163 293.52 274.416 260.65 253.79 248.144 238.224 221.741 211.806 210.578 196.002 180.218 170.967 169.869 167.148 164.694 164.235 168.194 169.905 164.791 154.771 153.013 145.694 135.726 124.004 113.011 103.537 103.386 99.8725 91.8609 84.6839 81.3788 76.0094 71.2731 67.0849 62.0899 59.6461 57.675 53.3926 51.1744 47.3544 42.0336 34.8299 30.1444 26.4676 23.8382 20.6894 17.2924 14.9748 13.6194 13.1798 12.5894 11.4836 10.7671 10.3609 8.9315
265.59 0.00025 532.685 1457.35 2156.47 1884.72 1777.37 1517.01 1366.62 1198.29 1097.54 994.921 895.939 841.762 800.109 771.215 739.546 690.814 661.065 656.611 667.978 667.332 646.116 619.246 604.621 587.226 540.242 506.539 482.585 456.378 452.121 437.367 402.727 376.969 371.177 373.283 368.003 355.977 364.578 364.017 358.552 348.727 336.733 326.072 325.694 316.012 304.981 293.348 274.846 260.934 254.203 248.262 238.536 222.306 211.992 210.316 196.309 180.423 170.816 169.483 166.985 164.544 164.171 168.181 169.786 164.85 154.71 153.029 145.965 136.2 124.312 113.026 103.381 103.46 99.8914 91.744 84.7513 81.5083 75.9602 71.2116 67.062 62.0954 59.7261 57.7088 53.4046 51.0677 47.3279 42.2503 34.9166 30.2297 26.5938 23.93 20.8002 17.3427 15.0296 13.6305 13.1744 12.5724 11.4642 10.7414 10.3543 8.93702
265.5925 0.00025 533.682 1458.34 2161.38 1884.89 1778.87 1514.49 1361.17 1194.95 1098.62 999.266 899.085 842.06 798.282 770.427 740.76 692.731 662.106 655.423 665.084 666.654 645.875 619.902 605.239 587.507 541.451 507.864 484.415 458.493 454.372 437.387 402.906 377.121 372.036 373.245 368.22 355.652 363.861 363.883 358.317 348.899 337.011 326.691 325.713 315.936 304.809 293.187 275.278 261.256 254.587 248.377 238.804 222.887 212.246 210.031 196.579 180.657 170.731 169.086 166.808 164.396 164.085 168.166 169.635 164.891 154.674 153.02 146.183 136.683 124.651 113.064 103.243 103.515 99.9066 91.6316 84.8196 81.6407 75.9138 71.1512 67.0315 62.1153 59.7864 57.7402 53.4379 50.9557 47.2947 42.455 35.0202 30.3057 26.716 24.0165 20.9143 17.3943 15.0853 13.6436 13.169 12.5551 11.4448 10.7156 10.3475 8.94235