265.5025 0.00025 5740.75 1466.75 1592.52 1840.58 1598.1 1392.11 1349.18 1150.17 1033.15 977.949 888.619 795.31 710.526 690.841 662.596 646.277 629.743 607.948 587.183 593.467 607.703 576.47 570.707 524.69 455.823 425.884 415.237 426.741 433.447 413.169 368.709 360.593 369.889 363.611 353.526 320.207 336.141 320.648 295.802 299.207 304.103 303.122 309.276 311.555 304.514 281.243 259.378 232.93 226.153 242.103 222.766 215.663 201.223 189.422 162.534 164.857 166.931 152.31 153.666 149.957 147.07 145.368 153.049 142.354 134.746 133.702 121.093 117.831 114.915 111.595 105.591 113.618 114.786 111.183 91.3303 79.6011 68.5744 62.7733 55.3001 49.8246 50.868 48.8313 48.374 45.5123 43.137 40.3972 34.8944 31.8871 25.6819 22.587 19.1744 17.1444 16.9064 15.896 14.9781 15.9688 16.8615 16.7065 20.2828 7.68313
265.505 0.00025 5732.93 1462.95 1590.21 1832.94 1592.77 1393.03 1344.52 1151.84 1031.06 978.485 885.581 797.713 716.014 690.869 665.265 647.255 629.456 607.287 588.183 594.627 608.609 578.052 572.277 525.901 457.003 427.803 414.358 426.607 434.177 413.619 368.503 361.301 369.547 363.636 353.527 320.273 334.728 321.511 294.946 301.01 302.386 301.378 309.668 310.189 304.852 282.41 260.52 234.021 226.418 241.851 222.556 214.2 202.341 190.127 163.372 164.347 166.865 151.976 153.558 150.643 146.514 145.854 152.97 141.971 134.283 134.122 121.468 118.113 114.432 111.514 105.701 113.422 114.412 111.288 91.4815 79.8342 68.5044 62.7739 55.5377 49.6538 50.7607 48.7888 48.2988 45.6652 43.3387 40.5308 34.9221 31.981 25.8629 22.6577 19.2948 17.1439 16.8833 15.9371 14.9881 15.9344 16.8576 16.6898 20.2217 7.665
265.5075 0.00025 5725.49 1458.61 1587.03 1824.45 1586.5 1395.68 1339.25 1152.49 1029.54 979.269 882.332 799.549 721.792 690.8 668.215 648.493 629.355 606.546 589.031 595.652 609.733 579.555 573.076 527.572 458.426 429.671 413.513 426.37 434.396 414.181 368.363 362.06 369.246 363.897 353.305 320.419 333.305 322.451 294.116 302.715 300.881 299.527 310.064 308.689 305.275 283.435 261.637 235.253 226.874 241.409 222.512 212.596 203.342 190.921 164.355 163.817 166.771 151.69 153.433 151.422 145.931 146.307 152.912 141.609 133.829 134.51 121.862 118.433 113.973 111.391 105.826 113.274 114.016 111.329 91.6659 80.0541 68.4568 62.7662 55.7628 49.5319 50.613 48.7771 48.1981 45.8272 43.5107 40.6793 34.9593 32.063 26.05 22.7245 19.4201 17.1479 16.8596 15.9781 14.9984 15.8999 16.8536 16.6744 20.1608 7.64679
265.51 0.00025 5718.54 1453.68 1582.99 1815.44 1579.66 1399.55 1333.68 1152.02 1028.59 980.213 879.125 800.685 727.556 690.935 671.283 649.999 629.397 605.713 589.778 596.567 611.035 581.016 573.093 529.623 460.198 431.376 412.773 426.045 434.12 414.798 368.342 362.834 368.993 364.384 352.909 320.555 331.922 323.43 293.361 304.282 299.611 297.625 310.368 307.153 305.741 284.317 262.716 236.601 227.552 240.788 222.588 210.912 204.192 191.809 165.469 163.284 166.647 151.445 153.3 152.281 145.347 146.709 152.884 141.262 133.395 134.855 122.274 118.782 113.555 111.225 105.96 113.169 113.615 111.297 91.8801 80.2629 68.4311 62.7561 55.9635 49.4696 50.4224 48.7909 48.0802 45.9941 43.655 40.84 35.0059 32.1349 26.2416 22.7885 19.549 17.1567 16.8353 16.0189 15.0089 15.8653 16.8496 16.6603 20.0999 7.62847
265.5125 0.00025 5712.22 1448.11 1578.02 1806.31 1572.58 1404.13 1328.05 1150.43 1028.2 981.286 876.158 801.093 732.961 691.546 674.33 651.767 629.561 604.789 590.454 597.413 612.462 582.416 572.448 531.874 462.446 432.813 412.201 425.639 433.404 415.391 368.5 363.587 368.79 365.071 352.405 320.6 330.621 324.405 292.727 305.685 298.575 295.75 310.475 305.672 306.217 285.055 263.745 238.035 228.473 240.018 222.731 209.21 204.859 192.791 166.697 162.765 166.496 151.233 153.17 153.199 144.787 147.041 152.894 140.924 132.995 135.153 122.706 119.149 113.192 111.016 106.098 113.098 113.225 111.188 92.1181 80.4636 68.4269 62.7489 56.1307 49.4739 50.1898 48.8229 47.9543 46.1604 43.7749 41.0097 35.0621 32.1987 26.4357 22.8507 19.6804 17.1711 16.8108 16.0595 15.0197 15.8306 16.8454 16.6475 20.0392 7.61007
265.515 0.00025 5706.72 1441.95 1572.13 1797.56 1565.42 1408.96 1322.57 1147.83 1028.33 982.508 873.568 800.878 737.654 692.819 677.268 653.761 629.833 603.797 591.073 598.24 613.952 583.692 571.374 534.084 465.286 433.908 411.842 425.171 432.319 415.877 368.893 364.286 368.65 365.92 351.862 320.492 329.426 325.341 292.253 306.909 297.755 293.988 310.291 304.319 306.679 285.654 264.709 239.533 229.639 239.143 222.879 207.55 205.323 193.867 168.018 162.279 166.318 151.046 153.051 154.159 144.274 147.287 152.949 140.592 132.638 135.396 123.157 119.526 112.896 110.766 106.236 113.054 112.858 110.999 92.371 80.6601 68.4435 62.7482 56.2588 49.5467 49.9201 48.8652 47.8296 46.3206 43.875 41.1844 35.1281 32.2566 26.6303 22.9128 19.8126 17.1915 16.7862 16.0998 15.0309 15.7958 16.8412 16.6359 19.9787 7.59157
265.5175 0.00025 5702.13 1435.25 1565.46 1789.65 1558.17 1413.74 1317.45 1144.4 1028.92 983.904 871.456 800.26 741.324 694.823 680.064 655.932 630.212 602.785 591.629 599.08 615.444 584.767 570.156 535.997 468.784 434.637 411.713 424.668 430.947 416.183 369.567 364.9 368.588 366.884 351.349 320.198 328.347 326.204 291.982 307.952 297.122 292.42 309.743 303.136 307.121 286.122 265.594 241.07 231.04 238.221 222.977 205.983 205.569 195.032 169.413 161.847 166.115 150.874 152.953 155.141 143.832 147.435 153.052 140.263 132.33 135.582 123.625 119.904 112.675 110.48 106.369 113.028 112.526 110.734 92.6282 80.8563 68.4805 62.7561 56.3463 49.6842 49.6222 48.9089 47.7141 46.4687 43.9606 41.3591 35.2046 32.3107 26.8233 22.9762 19.9444 17.2183 16.7618 16.1398 15.0424 15.7609 16.8369 16.6256 19.9184 7.57297
265.52 0.00025 5698.6 1428.12 1558.21 1783 1550.76 1418.29 1312.79 1140.36 1029.92 985.487 869.866 799.532 743.745 697.497 682.744 658.225 630.698 601.826 592.098 599.958 616.86 585.578 569.065 537.397 472.934 435.033 411.799 424.166 429.368 416.25 370.552 365.409 368.621 367.904 350.927 319.716 327.376 326.957 291.955 308.811 296.647 291.108 308.797 302.128 307.544 286.473 266.388 242.635 232.648 237.314 222.975 204.549 205.597 196.274 170.858 161.488 165.887 150.708 152.883 156.131 143.475 147.477 153.201 139.941 132.073 135.712 124.105 120.277 112.536 110.165 106.494 113.014 112.235 110.399 92.8776 81.0564 68.5372 62.7731 56.3964 49.8777 49.3082 48.9455 47.6143 46.5996 44.0382 41.5288 35.2925 32.3627 27.0127 23.0425 20.0742 17.2517 16.738 16.1793 15.0543 15.7259 16.8325 16.6165 19.8585 7.55428
265.5225 0.00025 5696.28 1420.65 1550.65 1777.79 1543.1 1422.61 1308.64 1135.93 1031.23 987.237 868.811 799.008 744.803 700.66 685.363 660.593 631.295 601.017 592.441 600.882 618.106 586.125 568.295 538.153 477.657 435.182 412.07 423.702 427.649 416.041 371.856 365.792 368.779 368.916 350.642 319.078 326.494 327.57 292.212 309.488 296.3 290.08 307.464 301.271 307.958 286.73 267.078 244.216 234.424 236.483 222.84 203.269 205.417 197.58 172.334 161.222 165.634 150.541 152.846 157.119 143.213 147.416 153.395 139.63 131.866 135.789 124.591 120.643 112.481 109.829 106.608 113.005 111.99 110.004 93.1064 81.2642 68.613 62.798 56.4154 50.1137 48.9929 48.9666 47.5356 46.7084 44.114 41.6882 35.3925 32.4141 27.1969 23.1131 20.2008 17.2921 16.7151 16.2182 15.0665 15.6908 16.828 16.6086 19.7988 7.5355
265.525 0.00025 5695.34 1412.93 1543.05 1774.15 1535.15 1426.72 1304.94 1131.28 1032.77 989.08 868.285 798.966 744.527 704.06 687.958 663.015 632 600.452 592.623 601.837 619.064 586.461 567.93 538.239 482.796 435.213 412.487 423.31 425.847 415.544 373.467 366.042 369.089 369.851 350.524 318.342 325.674 328.014 292.785 309.987 296.062 289.335 305.797 300.518 308.367 286.923 267.656 245.807 236.324 235.778 222.558 202.151 205.048 198.929 173.82 161.068 165.356 150.368 152.842 158.097 143.047 147.259 153.624 139.336 131.703 135.818 125.075 120.999 112.51 109.482 106.71 112.995 111.791 109.561 93.302 81.4832 68.7073 62.8288 56.4128 50.3757 48.6927 48.9648 47.4813 46.7911 44.1945 41.8325 35.5056 32.4662 27.3742 23.1893 20.3228 17.3395 16.6934 16.2567 15.0791 15.6556 16.8235 16.6019 19.7396 7.51662
265.5275 0.00025 5695.83 1405.03 1535.62 1772.01 1526.98 1430.68 1301.59 1126.58 1034.53 990.924 868.251 799.578 743.085 707.424 690.536 665.518 632.799 600.218 592.643 602.805 619.621 586.707 567.951 537.749 488.132 435.272 413.02 423.003 424.013 414.765 375.352 366.155 369.586 370.65 350.58 317.586 324.891 328.267 293.692 310.318 295.919 288.847 303.873 299.811 308.769 287.092 268.122 247.399 238.308 235.234 222.139 201.187 204.516 200.299 175.299 161.041 165.051 150.189 152.872 159.062 142.975 147.021 153.876 139.069 131.578 135.807 125.547 121.347 112.619 109.133 106.8 112.979 111.636 109.086 93.4523 81.7157 68.8193 62.8631 56.3992 50.6462 48.4236 48.9337 47.4533 46.8445 44.285 41.9576 35.6318 32.5202 27.5435 23.2724 20.4393 17.3938 16.6734 16.2947 15.092 15.6205 16.8188 16.5964 19.6807 7.49766
265.53 0.00025 5697.89 1396.97 1528.53 1771.21 1518.77 1434.43 1298.45 1121.96 1036.46 992.661 868.667 800.907 740.779 710.504 693.026 668.167 633.678 600.34 592.542 603.742 619.687 587.007 568.248 536.882 493.418 435.507 413.657 422.776 422.195 413.725 377.462 366.133 370.293 371.27 350.792 316.896 324.13 328.317 294.927 310.499 295.861 288.569 301.786 299.1 309.14 287.277 268.485 248.981 240.337 234.862 221.611 200.357 203.852 201.665 176.757 161.154 164.721 150.003 152.932 160.014 142.989 146.718 154.135 138.841 131.481 135.766 125.998 121.688 112.805 108.792 106.879 112.953 111.519 108.593 93.5475 81.9629 68.9486 62.8985 56.3855 50.9083 48.2001 48.8685 47.4523 46.8666 44.3897 42.061 35.7709 32.5769 27.7039 23.3632 20.5495 17.4546 16.6555 16.332 15.1052 15.5853 16.8141 16.5921 19.6223 7.4786
265.5325 0.00025 5701.65 1388.79 1521.95 1771.43 1510.89 1437.78 1295.37 1117.49 1038.53 994.183 869.453 802.887 737.999 713.101 695.298 671.048 634.654 600.768 592.395 604.584 619.22 587.501 568.645 535.905 498.407 436.032 414.414 422.6 420.433 412.454 379.742 365.983 371.219 371.681 351.122 316.357 323.381 328.165 296.463 310.557 295.878 288.446 299.63 298.355 309.438 287.517 268.767 250.54 242.383 234.657 221.018 199.637 203.086 203.005 178.181 161.413 164.365 149.812 153.016 160.953 143.078 146.372 154.386 138.663 131.403 135.701 126.419 122.023 113.06 108.466 106.95 112.913 111.436 108.095 93.5791 82.2242 69.0944 62.9328 56.3814 51.1477 48.0333 48.7664 47.4778 46.857 44.5108 42.142 35.9216 32.6375 27.8547 23.4624 20.6528 17.5216 16.6401 16.3689 15.1187 15.5502 16.8093 16.5889 19.5644 7.45946
265.535 0.00025 5707.19 1380.54 1516.03 1772.25 1503.81 1440.45 1292.19 1113.25 1040.65 995.421 870.538 805.367 735.161 715.095 697.177 674.234 635.779 601.389 592.308 605.259 618.246 588.289 568.948 535.114 502.874 436.922 415.33 422.434 418.764 410.988 382.128 365.713 372.365 371.881 351.512 316.037 322.65 327.83 298.245 310.53 295.96 288.42 297.486 297.567 309.606 287.843 269.002 252.058 244.424 234.594 220.413 199.004 202.245 204.297 179.56 161.821 163.989 149.618 153.119 161.88 143.233 145.999 154.615 138.544 131.337 135.618 126.801 122.355 113.378 108.164 107.017 112.856 111.377 107.607 93.5428 82.4979 69.256 62.9647 56.3943 51.3543 47.9299 48.6272 47.5283 46.8168 44.6478 42.2022 36.0816 32.7027 27.9956 23.5703 20.7491 17.5942 16.6277 16.4053 15.1325 15.5152 16.8044 16.5868 19.507 7.44023
265.5375 0.00025 5714.52 1372.44 1510.88 1773.46 1498.05 1442.15 1288.79 1109.33 1042.69 996.362 871.851 808.11 732.644 716.448 698.484 677.741 637.142 602.047 592.406 605.69 616.849 589.409 568.995 534.762 506.655 438.198 416.458 422.232 417.218 409.368 384.552 365.338 373.713 371.888 351.893 315.986 321.954 327.349 300.193 310.46 296.099 288.439 295.42 296.747 309.58 288.272 269.236 253.515 246.447 234.638 219.847 198.444 201.348 205.524 180.889 162.376 163.597 149.423 153.237 162.796 143.447 145.617 154.809 138.492 131.274 135.525 127.139 122.686 113.752 107.892 107.086 112.78 111.337 107.139 93.4365 82.7804 69.4329 62.9937 56.4286 51.5231 47.8917 48.4533 47.6012 46.7487 44.7977 42.245 36.2481 32.7734 28.1267 23.6869 20.8384 17.6714 16.6188 16.4412 15.1465 15.4804 16.7992 16.5859 19.4502 7.4209
265.54 0.00025 5723.78 1364.69 1506.6 1774.85 1493.98 1442.62 1285.03 1105.87 1044.48 997.026 873.351 810.827 730.756 717.183 699.091 681.514 638.847 602.572 592.8 605.813 615.149 590.827 568.706 535.005 509.66 439.837 417.844 421.957 415.808 407.636 386.951 364.876 375.237 371.739 352.191 316.236 321.313 326.774 302.215 310.389 296.289 288.458 293.477 295.927 309.303 288.802 269.522 254.893 248.438 234.748 219.36 197.95 200.411 206.666 182.166 163.071 163.196 149.227 153.365 163.7 143.715 145.238 154.959 138.513 131.211 135.423 127.429 123.016 114.175 107.654 107.16 112.683 111.306 106.699 93.2614 83.0668 69.6249 63.02 56.4858 51.6543 47.9152 48.2495 47.6929 46.6573 44.9546 42.2758 36.4176 32.8501 28.2485 23.8119 20.9211 17.7525 16.6137 16.4767 15.1607 15.4457 16.7939 16.5861 19.394 7.4015
265.5425 0.00025 5734.84 1357.5 1503.16 1776.45 1491.77 1441.72 1280.78 1103.04 1045.82 997.475 875.027 813.195 729.695 717.371 698.96 685.447 640.981 602.839 593.559 605.591 613.281 592.445 568.093 535.869 511.879 441.791 419.521 421.591 414.535 405.839 389.26 364.35 376.903 371.48 352.339 316.791 320.752 326.172 304.215 310.349 296.532 288.442 291.687 295.136 308.736 289.408 269.917 256.176 250.385 234.888 218.983 197.527 199.446 207.708 183.391 163.894 162.797 149.031 153.502 164.587 144.034 144.87 155.059 138.609 131.143 135.317 127.667 123.346 114.64 107.456 107.247 112.567 111.278 106.294 93.0222 83.3512 69.8315 63.0448 56.5645 51.7531 47.9924 48.0231 47.7991 46.5489 45.1109 42.3014 36.5867 32.933 28.3616 23.9445 20.998 17.8364 16.6129 16.5119 15.175 15.4113 16.7884 16.5874 19.3384 7.38202
265.545 0.00025 5747.74 1351 1500.43 1778.35 1491.38 1439.45 1276.03 1101.03 1046.58 997.759 876.912 814.899 729.566 717.11 698.141 689.396 643.573 602.798 594.694 605.02 611.374 594.124 567.257 537.252 513.377 444 421.495 421.136 413.379 404.031 391.412 363.786 378.666 371.161 352.284 317.639 320.292 325.611 306.108 310.356 296.837 288.367 290.065 294.4 307.869 290.041 270.476 257.356 252.273 235.03 218.724 197.19 198.462 208.634 184.569 164.829 162.413 148.83 153.65 165.453 144.407 144.515 155.109 138.78 131.069 135.207 127.852 123.675 115.142 107.298 107.351 112.43 111.245 105.924 92.7258 83.6265 70.0526 63.0694 56.6609 51.8287 48.1116 47.783 47.9147 46.4307 45.257 42.3291 36.7518 33.0218 28.4671 24.0836 21.07 17.9218 16.6168 16.547 15.1894 15.3773 16.7826 16.5898 19.2836 7.36247
265.5475 0.00025 5762.43 1345.22 1498.28 1780.67 1492.59 1435.94 1270.77 1099.99 1046.69 997.921 879.062 815.659 730.37 716.505 696.767 693.22 646.578 602.497 596.135 604.134 609.535 595.718 566.35 538.952 514.281 446.396 423.745 420.623 412.309 402.266 393.338 363.221 380.476 370.83 351.998 318.752 319.95 325.151 307.828 310.411 297.213 288.221 288.613 293.736 306.718 290.643 271.24 258.439 254.082 235.156 218.58 196.959 197.469 209.427 185.71 165.859 162.055 148.62 153.814 166.29 144.833 144.175 155.108 139.022 130.989 135.095 127.983 124.001 115.675 107.184 107.478 112.274 111.204 105.59 92.3818 83.8854 70.288 63.0955 56.7697 51.8928 48.2593 47.5389 48.0348 46.3107 45.3831 42.3663 36.9104 33.1163 28.5663 24.2278 21.1384 18.0077 16.6255 16.5821 15.2038 15.3436 16.7765 16.5932 19.2294 7.34284
265.55 0.00025 5778.84 1340.09 1496.54 1783.39 1495.18 1431.44 1265.02 1100.01 1046.15 998.011 881.53 815.287 732.035 715.661 695.028 696.792 649.88 602.055 597.744 602.989 607.829 597.105 565.521 540.722 514.743 448.909 426.228 420.098 411.286 400.601 394.974 362.698 382.273 370.52 351.474 320.094 319.74 324.844 309.334 310.501 297.673 288.01 287.331 293.148 305.325 291.153 272.229 259.439 255.788 235.259 218.534 196.85 196.482 210.068 186.822 166.962 161.739 148.396 153.999 167.091 145.314 143.849 155.059 139.332 130.903 134.983 128.06 124.322 116.235 107.115 107.63 112.103 111.149 105.289 92.0015 84.1204 70.5373 63.1245 56.8852 51.9581 48.4211 47.3006 48.154 46.1967 45.4795 42.4195 37.0601 33.2156 28.6605 24.3759 21.2044 18.0929 16.6394 16.6174 15.2183 15.3103 16.77 16.5977 19.176 7.32316
265.5525 0.00025 5796.85 1335.57 1495.22 1786.3 1499.05 1426.25 1258.84 1101.08 1045.01 998.062 884.329 813.714 734.401 714.685 693.122 700.031 653.311 601.664 599.33 601.679 606.293 598.204 564.879 542.319 514.928 451.468 428.888 419.622 410.27 399.085 396.266 362.263 383.995 370.256 350.734 321.621 319.666 324.72 310.611 310.595 298.228 287.751 286.207 292.629 303.747 291.517 273.438 260.39 257.366 235.34 218.562 196.88 195.522 210.54 187.918 168.118 161.478 148.152 154.212 167.848 145.851 143.538 154.966 139.703 130.815 134.874 128.082 124.635 116.817 107.091 107.811 111.919 111.078 105.014 91.5975 84.3245 70.7997 63.1578 57.0013 52.0368 48.584 47.0767 48.2678 46.0957 45.5379 42.4938 37.1997 33.3192 28.7509 24.5262 21.2697 18.1762 16.6584 16.6531 15.2327 15.2776 16.7633 16.6032 19.1233 7.3034
265.555 0.00025 5816.43 1331.56 1494.38 1788.97 1504.07 1420.7 1252.3 1103.16 1043.37 998.1 887.425 811.014 737.257 713.675 691.244 702.898 656.674 601.522 600.685 600.313 604.919 598.984 564.48 543.55 514.98 454.013 431.663 419.254 409.235 397.751 397.177 361.958 385.578 370.046 349.818 323.292 319.729 324.794 311.667 310.657 298.883 287.469 285.229 292.163 302.045 291.697 274.833 261.329 258.792 235.41 218.636 197.054 194.614 210.823 189.008 169.307 161.283 147.882 154.458 168.555 146.438 143.248 154.831 140.126 130.727 134.769 128.049 124.935 117.416 107.115 108.024 111.725 110.989 104.759 91.1825 84.4918 71.074 63.1965 57.113 52.1395 48.7371 46.8738 48.3723 46.0135 45.5518 42.5926 37.3287 33.426 28.8385 24.6774 21.3355 18.2567 16.6826 16.6895 15.247 15.2454 16.7561 16.6097 19.0715 7.2836
265.5575 0.00025 5837.49 1328.02 1494.04 1790.95 1510.16 1415.04 1245.57 1106.12 1041.34 998.104 890.669 807.405 740.334 712.714 689.578 705.391 659.782 601.817 601.592 599.017 603.695 599.445 564.321 544.29 515.006 456.501 434.489 419.047 408.166 396.612 397.69 361.82 386.96 369.89 348.782 325.07 319.924 325.066 312.531 310.651 299.637 287.197 284.387 291.735 300.275 291.682 276.355 262.302 260.048 235.482 218.729 197.369 193.785 210.905 190.098 170.515 161.164 147.585 154.741 169.209 147.068 142.983 154.659 140.593 130.643 134.669 127.963 125.219 118.029 107.187 108.268 111.526 110.884 104.515 90.7688 84.6176 71.3584 63.2417 57.2163 52.2737 48.8731 46.6966 48.4647 45.9547 45.5173 42.7169 37.4478 33.5356 28.9242 24.8283 21.403 18.3335 16.7118 16.7267 15.2612 15.2138 16.7485 16.6172 19.0206 7.26374
265.56 0.00025 5859.96 1324.94 1494.06 1791.76 1517.1 1409.46 1238.85 1109.74 1039.08 998.017 893.855 803.242 743.322 711.862 688.289 707.509 662.501 602.68 601.882 597.91 602.614 599.601 564.363 544.499 515.059 458.917 437.31 419.038 407.073 395.654 397.82 361.869 388.081 369.784 347.681 326.922 320.242 325.52 313.238 310.544 300.481 286.971 283.663 291.327 298.484 291.482 277.93 263.347 261.122 235.568 218.819 197.813 193.067 210.776 191.189 171.728 161.124 147.261 155.062 169.809 147.732 142.755 154.451 141.094 130.57 134.575 127.827 125.481 118.651 107.311 108.545 111.323 110.762 104.274 90.3676 84.6984 71.6505 63.2942 57.3084 52.4439 48.9886 46.5473 48.5432 45.9221 45.4333 42.8653 37.5581 33.6472 29.0085 24.9779 21.4733 18.406 16.7456 16.7651 15.2753 15.1829 16.7404 16.6257 18.9705 7.24384
265.5625 0.00025 5883.65 1322.35 1494.27 1791.14 1524.55 1404.13 1232.36 1113.73 1036.77 997.757 896.703 798.953 745.931 711.143 687.516 709.243 664.774 604.164 601.432 597.058 601.692 599.466 564.536 544.198 515.138 461.268 440.074 419.253 405.978 394.84 397.606 362.112 388.888 369.723 346.572 328.822 320.674 326.136 313.828 310.316 301.395 286.825 283.046 290.92 296.707 291.127 279.475 264.495 262.018 235.683 218.889 198.368 192.481 210.44 192.277 172.936 161.164 146.914 155.418 170.357 148.416 142.573 154.208 141.617 130.514 134.486 127.645 125.712 119.28 107.487 108.855 111.122 110.629 104.025 89.9884 84.7326 71.9469 63.3551 57.3875 52.6513 49.0842 46.4253 48.6074 45.9171 45.3012 43.0342 37.6621 33.7601 29.0918 25.1253 21.5472 18.474 16.7838 16.805 15.2893 15.1526 16.7318 16.6351 18.9214 7.2239
265.565 0.00025 5908.4 1320.24 1494.31 1788.95 1532.05 1399.23 1226.37 1117.73 1034.6 997.258 898.937 794.965 747.898 710.56 687.358 710.575 666.635 606.219 600.213 596.464 600.976 599.053 564.746 543.473 515.194 463.589 442.738 419.69 404.915 394.123 397.108 362.538 389.343 369.706 345.503 330.751 321.208 326.885 314.337 309.959 302.346 286.791 282.526 290.498 294.971 290.661 280.908 265.762 262.747 235.838 218.931 199.011 192.044 209.906 193.353 174.135 161.279 146.55 155.808 170.857 149.106 142.45 153.934 142.151 130.485 134.399 127.425 125.906 119.91 107.721 109.195 110.925 110.486 103.762 89.6387 84.7202 72.2439 63.4255 57.4529 52.894 49.1638 46.3282 48.6574 45.939 45.1256 43.2171 37.7636 33.8734 29.1744 25.27 21.625 18.5374 16.8256 16.8465 15.3032 15.1231 16.7228 16.6453 18.8733 7.20394
265.5675 0.00025 5934.07 1318.69 1493.83 1785.29 1539.02 1395.01 1221.07 1121.38 1032.72 996.454 900.322 791.641 749.018 710.111 687.863 711.49 668.189 608.715 598.289 596.053 600.527 598.384 564.87 542.453 515.153 465.925 445.273 420.33 403.93 393.448 396.407 363.121 389.419 369.733 344.515 332.689 321.832 327.736 314.795 309.477 303.301 286.892 282.095 290.046 293.296 290.128 282.16 267.148 263.331 236.046 218.94 199.715 191.763 209.195 194.406 175.317 161.463 146.178 156.227 171.313 149.787 142.398 153.629 142.682 130.491 134.31 127.177 126.053 120.538 108.013 109.564 110.734 110.338 103.476 89.3235 84.6636 72.5369 63.5069 57.5045 53.1678 49.2343 46.2521 48.6946 45.9861 44.9136 43.4055 37.8672 33.9856 29.2568 25.4113 21.707 18.5963 16.8705 16.89 15.3171 15.0943 16.7132 16.6565 18.8261 7.18396
265.57 0.00025 5960.49 1317.67 1492.64 1780.35 1544.92 1391.81 1216.62 1124.41 1031.22 995.318 900.735 789.23 749.161 709.789 689.038 711.987 669.582 611.47 595.798 595.694 600.394 597.528 564.763 541.278 514.934 468.322 447.655 421.14 403.07 392.763 395.592 363.826 389.106 369.805 343.638 334.623 322.535 328.662 315.22 308.887 304.222 287.139 281.753 289.54 291.704 289.571 283.181 268.634 263.795 236.319 218.914 200.458 191.632 208.335 195.419 176.48 161.708 145.807 156.668 171.731 150.445 142.426 153.301 143.198 130.541 134.213 126.91 126.143 121.158 108.37 109.959 110.551 110.191 103.161 89.0454 84.5662 72.8212 63.6009 57.5425 53.4667 49.3046 46.1916 48.7205 46.055 44.6745 43.5888 37.9787 34.0947 29.3395 25.549 21.793 18.6514 16.9174 16.9357 15.3309 15.0662 16.703 16.6684 18.7799 7.16396
265.5725 0.00025 5987.5 1317.27 1490.68 1774.58 1549.21 1390 1213.05 1126.75 1030.1 993.844 900.165 787.831 748.272 709.585 690.86 712.081 670.974 614.292 592.933 595.234 600.584 596.608 564.266 540.082 514.468 470.82 449.883 422.063 402.383 392.032 394.749 364.604 388.415 369.924 342.895 336.538 323.305 329.636 315.618 308.212 305.081 287.536 281.512 288.956 290.213 289.018 283.938 270.188 264.17 236.671 218.854 201.22 191.638 207.362 196.378 177.619 162.007 145.446 157.127 172.116 151.069 142.542 152.953 143.685 130.644 134.102 126.639 126.167 121.765 108.795 110.378 110.38 110.048 102.814 88.8043 84.4333 73.0917 63.7091 57.5676 53.7839 49.384 46.1419 48.7372 46.1417 44.4191 43.7552 38.1048 34.1986 29.4232 25.6828 21.8826 18.7034 16.9657 16.9839 15.3449 15.0389 16.6924 16.6811 18.7348 7.14395
265.575 0.00025 6014.93 1317.49 1487.99 1768.39 1551.32 1389.87 1210.32 1128.52 1029.3 992.015 898.749 787.399 746.421 709.488 693.292 711.809 672.476 617.023 589.884 594.539 601.058 595.782 563.238 538.961 513.715 473.436 451.972 423.037 401.915 391.232 393.956 365.402 387.37 370.084 342.305 338.42 324.129 330.636 315.985 307.478 305.859 288.067 281.384 288.266 288.851 288.486 284.425 271.765 264.484 237.116 218.76 201.986 191.759 206.31 197.269 178.728 162.352 145.103 157.598 172.474 151.648 142.747 152.595 144.133 130.808 133.969 126.376 126.119 122.349 109.294 110.817 110.221 109.914 102.433 88.598 84.2711 73.3433 63.833 57.5803 54.1123 49.4817 46.0983 48.7466 46.2415 44.1592 43.8926 38.2518 34.295 29.5088 25.8127 21.975 18.7533 17.0144 17.0346 15.359 15.0124 16.6811 16.6945 18.6907 7.12394
265.5775 0.00025 6042.52 1318.35 1484.74 1762.18 1550.93 1391.5 1208.34 1130.03 1028.65 989.792 896.755 787.758 743.792 709.457 696.295 711.221 674.136 619.557 586.813 593.517 601.746 595.216 561.593 537.944 512.683 476.158 453.97 424 401.695 390.36 393.27 366.173 386.012 370.278 341.877 340.259 324.996 331.641 316.31 306.712 306.546 288.714 281.388 287.445 287.644 287.978 284.657 273.309 264.769 237.667 218.635 202.742 191.968 205.216 198.079 179.8 162.737 144.787 158.073 172.809 152.178 143.04 152.233 144.53 131.038 133.807 126.135 125.993 122.903 109.87 111.274 110.077 109.791 102.018 88.4221 84.0867 73.5717 63.9736 57.5819 54.4449 49.6056 46.0574 48.7502 46.3498 43.9059 43.9896 38.4258 34.3821 29.5969 25.9387 22.0695 18.802 17.0626 17.0879 15.3735 14.9867 16.6693 16.7086 18.6478 7.10393
265.58 0.00025 6070.01 1319.93 1481.17 1756.18 1547.93 1394.81 1207.02 1131.63 1028.02 987.09 894.515 788.653 740.655 709.418 699.819 710.385 675.94 621.85 583.85 592.102 602.558 595.022 559.343 536.988 511.43 478.938 455.948 424.889 401.732 389.437 392.731 366.872 384.393 370.491 341.619 342.04 325.895 332.635 316.578 305.939 307.152 289.447 281.54 286.469 286.614 287.48 284.663 274.76 265.049 238.331 218.482 203.48 192.238 204.113 198.799 180.825 163.157 144.505 158.545 173.123 152.655 143.417 151.88 144.869 131.336 133.612 125.928 125.787 123.416 110.527 111.746 109.95 109.683 101.569 88.2708 83.8874 73.7731 64.1315 57.5735 54.7756 49.7617 46.0172 48.7489 46.4624 43.6696 44.0367 38.6309 34.4587 29.6878 26.061 22.1651 18.8506 17.1095 17.1438 15.3884 14.9617 16.657 16.7232 18.6059 7.08394
265.5825 0.00025 6097.13 1322.25 1477.4 1750.38 1542.55 1399.49 1206.27 1133.63 1027.28 983.829 892.374 789.831 737.324 709.289 703.798 709.39 677.838 623.906 581.081 590.287 603.406 595.243 556.61 535.988 510.046 481.713 457.989 425.663 402.007 388.506 392.349 367.475 382.566 370.705 341.533 343.75 326.82 333.604 316.775 305.177 307.693 290.239 281.847 285.33 285.784 286.973 284.491 276.06 265.35 239.115 218.314 204.19 192.542 203.025 199.424 181.796 163.606 144.265 159.011 173.418 153.08 143.869 151.545 145.146 131.701 133.378 125.764 125.504 123.873 111.269 112.231 109.84 109.59 101.092 88.1368 83.6806 73.9447 64.306 57.5571 55.0986 49.9538 45.9774 48.7428 46.5758 43.4582 44.0279 38.8688 34.5251 29.7817 26.18 22.2607 18.9002 17.1544 17.2023 15.404 14.9375 16.6442 16.7384 18.5653 7.06398
265.585 0.00025 6123.76 1325.31 1473.67 1744.57 1535.32 1405.07 1206.03 1136.21 1026.45 979.92 890.629 791.063 734.077 709 708.128 708.362 679.743 625.762 578.542 588.11 604.192 595.839 553.601 534.812 508.631 484.401 460.175 426.297 402.468 387.638 392.111 367.97 380.587 370.901 341.62 345.377 327.767 334.529 316.893 304.437 308.197 291.064 282.3 284.032 285.164 286.43 284.185 277.156 265.694 240.012 218.148 204.86 192.857 201.971 199.957 182.702 164.079 144.073 159.464 173.693 153.459 144.385 151.237 145.357 132.133 133.103 125.65 125.15 124.262 112.097 112.728 109.748 109.514 100.591 88.0123 83.4729 74.0847 64.4957 57.5355 55.409 50.1835 45.9394 48.7314 46.6879 43.277 43.9605 39.1382 34.583 29.878 26.2962 22.3553 18.9517 17.1968 17.2631 15.4205 14.9141 16.6308 16.7541 18.5258 7.04405
265.5875 0.00025 6149.74 1329.11 1470.03 1738.39 1527.06 1411 1206.26 1139.34 1025.65 975.338 889.512 792.208 731.113 708.527 712.668 707.456 681.557 627.476 576.24 585.669 604.824 596.725 550.577 533.336 507.275 486.941 462.562 426.797 403.031 386.91 391.984 368.359 378.51 371.058 341.879 346.909 328.739 335.39 316.931 303.725 308.69 291.907 282.874 282.601 284.755 285.828 283.792 278.009 266.094 241.009 218.012 205.476 193.166 200.962 200.397 183.536 164.57 143.935 159.899 173.946 153.8 144.953 150.966 145.504 132.625 132.787 125.591 124.736 124.566 113.008 113.238 109.674 109.455 100.074 87.8891 83.2702 74.1927 64.6979 57.5122 55.7018 50.4505 45.9061 48.7142 46.7974 43.1286 43.8364 39.4345 34.6355 29.9761 26.41 22.4482 19.0058 17.2362 17.3259 15.438 14.8913 16.617 16.7701 18.4876 7.02416
265.59 0.00025 6174.99 1333.57 1466.54 1731.43 1518.63 1416.7 1206.99 1142.82 1025.09 970.137 889.133 793.203 728.53 707.891 717.263 706.849 683.159 629.095 574.172 583.115 605.197 597.777 547.799 531.471 506.041 489.297 465.159 427.212 403.593 386.406 391.92 368.663 376.379 371.154 342.306 348.334 329.741 336.166 316.899 303.042 309.19 292.765 283.531 281.076 284.541 285.152 283.352 278.594 266.56 242.082 217.941 206.02 193.457 200.003 200.751 184.289 165.072 143.86 160.315 174.171 154.114 145.561 150.737 145.589 133.171 132.432 125.584 124.278 124.771 113.998 113.764 109.618 109.412 99.5481 87.7593 83.0771 74.2694 64.9091 57.4915 55.9726 50.7529 45.8814 48.69 46.9042 43.0127 43.6614 39.7501 34.6867 30.0752 26.5218 22.5387 19.063 17.2726 17.3902 15.4569 14.8692 16.6028 16.7865 18.4505 7.00434
265.5925 0.00025 6199.42 1338.56 1463.19 1723.41 1510.85 1421.59 1208.31 1146.31 1024.98 964.473 889.503 794.061 726.338 707.149 721.76 706.688 684.46 630.629 572.345 580.625 605.202 598.87 545.48 529.195 504.946 491.482 467.914 427.626 404.055 386.196 391.874 368.909 374.233 371.168 342.899 349.639 330.785 336.831 316.816 302.386 309.709 293.65 284.222 279.51 284.494 284.398 282.892 278.903 267.092 243.2 217.98 206.475 193.723 199.092 201.027 184.959 165.577 143.854 160.708 174.361 154.413 146.194 150.556 145.617 133.762 132.041 125.624 123.794 124.865 115.059 114.312 109.577 109.383 99.0217 87.6155 82.8971 74.3166 65.1247 57.4785 56.2174 51.0876 45.8697 48.6581 47.0088 42.9267 43.4444 40.0754 34.7411 30.1748 26.6315 22.6263 19.1235 17.3059 17.4557 15.4774 14.8479 16.5881 16.8031 18.4148 6.98458