265.5025 0.00025 1139.74 1003.18 1586.24 1816.52 1660.57 1444.02 1305.46 1200.24 1108.5 1027.58 972.682 856.244 822.642 836.31 824.713 812.531 752.33 742.726 709.732 691.11 666.874 667.835 656.251 652.153 651.432 630.464 579.316 548.148 546.886 533.587 489.963 447.63 459.263 467.427 480.977 485.199 459.025 427.818 418.268 394.851 410.662 427.351 393.817 375.89 355.928 326.454 312.082 318.864 301.267 272.821 253.292 255.301 245.354 234.788 241.19 236.437 231.403 227.166 236.695 227.037 201.612 196.615 210 210.687 198.523 184.119 164.745 164.612 156.361 141.069 122.005 118.981 119.825 114.372 98.3334 90.9336 89.4579 83.9287 76.3774 74.3466 73.2178 72.2739 64.1111 57.2967 50.3337 43.5239 36.365 33.2212 32.0024 29.6331 29.0502 25.4948 22.2867 20.3555 20.2621 21.3007 21.3234 22.4758 23.7475 7.30204
265.505 0.00025 1143.09 1003.74 1582.91 1818.29 1662.77 1441.67 1303.21 1202.52 1106.38 1026.79 974.081 856.853 822.801 837.848 824.526 812.721 751.165 746.151 712.012 688.631 667.995 666.97 656.792 654.538 654.439 631.672 578.155 548.193 543.993 534.489 491.282 447.072 458.529 466.385 479.874 484.122 457.527 427.982 418.833 394.92 409.897 427.301 393.794 376.024 357.994 328.422 311.316 318.972 302.572 272.908 253.022 255.292 245.235 234.778 241.07 236.152 230.188 226.383 236.469 227.452 201.819 196.429 209.432 209.997 198.446 184.374 165.276 164.774 156.34 140.871 121.929 118.546 119.605 114.166 98.0889 90.8022 89.0368 83.9264 76.3071 74.1193 73.2018 72.3765 64.2221 57.332 50.6293 43.8881 36.5623 33.179 32.1073 29.7405 29.0224 25.5289 22.2987 20.3273 20.234 21.2787 21.3118 22.4921 23.7917 7.31932
265.5075 0.00025 1146.34 1003.9 1578.89 1819.2 1665.18 1439.3 1301.26 1204.39 1105.14 1025.37 975.115 857.628 823.271 838.883 824.382 812.67 750.577 749.308 714.529 686.049 669.968 665.763 657.03 656.476 657.641 632.968 577.085 548.307 541.171 535.053 492.675 446.79 457.869 465.037 478.585 482.845 456.005 428.094 419.379 395.057 409.014 427.233 393.757 376.273 359.826 330.564 310.576 318.948 303.825 273.11 252.752 255.19 245.162 234.877 240.888 235.856 229.101 225.55 236.185 227.76 202.073 196.279 208.88 209.325 198.307 184.609 165.87 164.897 156.32 140.644 121.88 118.131 119.384 113.942 97.8434 90.6908 88.6384 83.8358 76.3201 73.8746 73.1523 72.4593 64.3727 57.3449 50.9198 44.243 36.7868 33.1391 32.1949 29.8585 28.9966 25.5608 22.3134 20.2989 20.2051 21.2564 21.3 22.5081 23.8352 7.33638
265.51 0.00025 1149.37 1003.77 1574.39 1819.32 1667.71 1437.06 1299.46 1205.69 1104.77 1023.42 975.754 858.49 824.075 839.433 824.35 812.424 750.593 752.132 717.155 683.468 672.699 664.267 656.986 657.888 661.019 634.432 576.089 548.447 538.501 535.27 494.141 446.771 457.305 463.416 477.107 481.332 454.473 428.154 419.894 395.235 408.035 427.146 393.691 376.658 361.424 332.827 309.911 318.794 304.979 273.446 252.495 254.977 245.131 235.091 240.641 235.521 228.176 224.659 235.865 227.943 202.366 196.175 208.337 208.683 198.109 184.81 166.53 164.981 156.297 140.394 121.854 117.738 119.164 113.702 97.5963 90.5909 88.2783 83.6519 76.4007 73.6339 73.0638 72.5169 64.5623 57.3423 51.202 44.5876 37.037 33.1061 32.2641 29.9855 28.9736 25.5906 22.3307 20.2705 20.1755 21.2337 21.2879 22.5241 23.8781 7.35324
265.5125 0.00025 1152.14 1003.47 1569.53 1818.8 1670.28 1435.05 1297.66 1206.32 1105.13 1021.13 975.98 859.367 825.193 839.56 824.486 812.034 751.226 754.595 719.724 681.03 676.047 662.549 656.681 658.745 664.508 636.149 575.133 548.581 536.036 535.167 495.668 446.996 456.843 461.563 475.444 479.555 452.938 428.166 420.373 395.426 406.981 427.024 393.598 377.171 362.822 335.141 309.373 318.517 305.991 273.924 252.271 254.642 245.136 235.421 240.334 235.123 227.433 223.711 235.521 227.991 202.681 196.134 207.796 208.077 197.861 184.966 167.256 165.026 156.269 140.125 121.848 117.37 118.942 113.448 97.3473 90.4937 87.9679 83.3783 76.5261 73.4192 72.9343 72.5426 64.7886 57.3321 51.4723 44.921 37.3102 33.0844 32.3143 30.1199 28.9543 25.618 22.3506 20.2423 20.145 21.2106 21.2756 22.5398 23.9204 7.36988
265.515 0.00025 1154.63 1003.14 1564.39 1817.77 1672.78 1433.43 1295.73 1206.24 1105.93 1018.71 975.776 860.219 826.563 839.378 824.82 811.55 752.448 756.696 722.056 678.912 679.841 660.701 656.142 659.069 668.011 638.186 574.189 548.681 533.81 534.798 497.233 447.443 456.477 459.528 473.599 477.507 451.401 428.136 420.82 395.598 405.882 426.834 393.508 377.784 364.07 337.431 309.002 318.131 306.827 274.538 252.103 254.176 245.17 235.86 239.973 234.647 226.879 222.722 235.155 227.904 202.995 196.168 207.253 207.508 197.572 185.071 168.041 165.039 156.229 139.841 121.857 117.027 118.719 113.185 97.0961 90.3921 87.7138 83.0256 76.6689 73.2508 72.7655 72.5296 65.047 57.3237 51.7272 45.2428 37.6033 33.0785 32.3458 30.2596 28.9394 25.6431 22.373 20.2143 20.1136 21.187 21.2632 22.5555 23.9621 7.38627
265.5175 0.00025 1156.77 1002.93 1559.13 1816.4 1675.06 1432.38 1293.64 1205.5 1106.82 1016.37 975.136 861.044 828.071 839.049 825.345 811.03 754.204 758.459 723.961 677.301 683.893 658.826 655.391 658.927 671.406 640.58 573.248 548.706 531.836 534.244 498.806 448.087 456.201 457.365 471.58 475.199 449.849 428.065 421.252 395.719 404.777 426.529 393.467 378.452 365.231 339.626 308.83 317.647 307.464 275.271 252.017 253.579 245.227 236.397 239.567 234.086 226.505 221.718 234.758 227.697 203.282 196.29 206.709 206.975 197.255 185.122 168.877 165.025 156.172 139.545 121.882 116.71 118.493 112.917 96.8425 90.2799 87.518 82.6107 76.7999 73.145 72.5634 72.4713 65.3306 57.3274 51.9634 45.5531 37.9129 33.0921 32.3592 30.4027 28.9296 25.6659 22.3978 20.1867 20.0815 21.163 21.2505 22.5711 24.0031 7.40242
265.52 0.00025 1158.54 1002.86 1553.77 1814.81 1676.95 1432.05 1291.46 1204.22 1107.47 1014.26 974.042 861.872 829.552 838.791 826.025 810.552 756.405 759.917 725.28 676.388 688.018 657.016 654.433 658.43 674.568 643.322 572.34 548.606 530.114 533.597 500.353 448.901 455.999 455.123 469.395 472.662 448.265 427.949 421.695 395.749 403.709 426.047 393.526 379.122 366.355 341.676 308.873 317.082 307.891 276.094 252.036 252.854 245.298 237.018 239.123 233.445 226.288 220.736 234.315 227.389 203.512 196.509 206.166 206.469 196.921 185.123 169.747 164.994 156.091 139.241 121.921 116.418 118.266 112.648 96.5866 90.1529 87.3777 82.1541 76.891 73.1126 72.3374 72.3629 65.63 57.3535 52.1786 45.8518 38.235 33.1288 32.3558 30.5471 28.9255 25.6863 22.4248 20.1597 20.0485 21.1383 21.2376 22.5866 24.0435 7.41832
265.5225 0.00025 1159.91 1002.94 1548.45 1813.04 1678.31 1432.5 1289.35 1202.57 1107.6 1012.41 972.511 862.758 830.807 838.828 826.8 810.205 758.938 761.091 725.909 676.326 692.062 655.363 653.245 657.717 677.389 646.355 571.537 548.318 528.634 532.95 501.842 449.848 455.856 452.848 467.059 469.935 446.631 427.78 422.179 395.649 402.726 425.327 393.741 379.759 367.473 343.552 309.13 316.449 308.107 276.973 252.179 252.016 245.373 237.703 238.648 232.738 226.192 219.818 233.806 227.005 203.66 196.828 205.634 205.98 196.58 185.083 170.635 164.956 155.979 138.931 121.976 116.146 118.036 112.382 96.3281 90.0086 87.2862 81.6783 76.9185 73.1574 72.1001 72.2012 65.9338 57.4121 52.3712 46.1393 38.5656 33.1915 32.3375 30.6907 28.9275 25.7046 22.4539 20.1333 20.0147 21.113 21.2245 22.602 24.0833 7.43394
265.525 0.00025 1160.93 1003.16 1543.36 1811.15 1679.08 1433.67 1287.58 1200.64 1107.06 1010.77 970.584 863.765 831.636 839.359 827.585 810.075 761.694 761.974 725.827 677.212 695.88 653.935 651.789 656.946 679.796 649.566 570.945 547.77 527.381 532.386 503.246 450.886 455.758 450.568 464.592 467.057 444.935 427.55 422.732 395.392 401.867 424.321 394.153 380.34 368.595 345.25 309.586 315.761 308.121 277.872 252.456 251.089 245.445 238.429 238.146 231.991 226.17 219.006 233.212 226.569 203.709 197.243 205.124 205.498 196.239 185.014 171.52 164.92 155.831 138.614 122.05 115.89 117.804 112.123 96.0677 89.8463 87.234 81.2056 76.864 73.2762 71.8658 71.9858 66.2287 57.5121 52.5408 46.4159 38.9004 33.2824 32.3065 30.8315 28.9358 25.721 22.485 20.1076 19.9802 21.0871 21.2112 22.6174 24.1225 7.44928
265.5275 0.00025 1161.57 1003.39 1538.58 1809.16 1679.29 1435.44 1286.38 1198.54 1105.85 1009.21 968.342 864.92 831.887 840.512 828.302 810.23 764.587 762.552 725.112 679.069 699.368 652.776 650.028 656.262 681.752 652.798 570.691 546.898 526.339 531.966 504.559 451.969 455.694 448.309 462.022 464.066 443.178 427.247 423.37 394.968 401.156 422.995 394.79 380.869 369.701 346.788 310.218 315.028 307.949 278.758 252.864 250.107 245.503 239.176 237.62 231.237 226.172 218.338 232.519 226.102 203.646 197.745 204.648 205.01 195.904 184.932 172.382 164.897 155.641 138.292 122.145 115.646 117.571 111.874 95.8058 89.6671 87.2094 80.7566 76.7169 73.4584 71.6499 71.7191 66.5007 57.6607 52.688 46.6821 39.2354 33.403 32.2654 30.9677 28.9507 25.7356 22.5178 20.0828 19.9449 21.0604 21.1977 22.6327 24.1611 7.46435
265.53 0.00025 1161.85 1003.64 1534.14 1807.04 1678.98 1437.69 1285.94 1196.35 1104.06 1007.61 965.902 866.195 831.484 842.308 828.901 810.68 767.584 762.786 723.921 681.827 702.456 651.891 647.953 655.769 683.267 655.859 570.901 545.657 525.485 531.731 505.785 453.053 455.642 446.089 459.375 460.988 441.37 426.866 424.089 394.394 400.596 421.348 395.649 381.372 370.761 348.2 311.002 314.255 307.615 279.604 253.388 249.109 245.541 239.917 237.068 230.508 226.153 217.845 231.722 225.617 203.471 198.314 204.219 204.507 195.579 184.857 173.203 164.893 155.407 137.966 122.266 115.409 117.34 111.637 95.543 89.4735 87.1997 80.3484 76.4741 73.6873 71.4672 71.4056 66.7363 57.8628 52.8148 46.9384 39.5669 33.5543 32.217 31.0978 28.972 25.7487 22.5523 20.059 19.9088 21.0329 21.184 22.6479 24.1991 7.47914
265.5325 0.00025 1161.75 1003.82 1530.05 1804.7 1678.25 1440.29 1286.29 1194.12 1101.8 1005.83 963.379 867.504 830.441 844.64 829.407 811.378 770.694 762.643 722.45 685.333 705.115 651.233 645.61 655.52 684.398 658.55 571.679 544.043 524.789 531.703 506.94 454.099 455.569 443.935 456.677 457.842 439.533 426.401 424.862 393.705 400.17 419.402 396.699 381.885 371.732 349.521 311.907 313.445 307.142 280.389 254.003 248.139 245.552 240.631 236.489 229.837 226.071 217.544 230.828 225.119 203.191 198.93 203.848 203.982 195.264 184.807 173.967 164.913 155.125 137.636 122.415 115.172 117.111 111.415 95.28 89.2688 87.1924 79.9938 76.14 73.9414 71.3314 71.053 66.9229 58.1202 52.9247 47.1851 39.8917 33.7362 32.1645 31.2201 28.9997 25.7607 22.5882 20.0363 19.8721 21.0047 21.1701 22.6632 24.2366 7.49363
265.535 0.00025 1161.33 1003.87 1526.44 1801.96 1677.25 1443.14 1287.34 1191.95 1099.2 1003.81 960.878 868.727 828.869 847.288 829.905 812.217 773.948 762.107 720.897 689.381 707.356 650.714 643.102 655.506 685.225 660.678 573.087 542.097 524.218 531.881 508.048 455.08 455.43 441.884 453.942 454.639 437.689 425.863 425.648 392.958 399.84 417.204 397.898 382.458 372.571 350.788 312.908 312.6 306.555 281.099 254.678 247.24 245.537 241.292 235.879 229.254 225.898 217.437 229.851 224.606 202.824 199.569 203.542 203.433 194.958 184.796 174.663 164.96 154.795 137.303 122.595 114.932 116.886 111.208 95.018 89.0576 87.1756 79.7009 75.7256 74.1969 71.2536 70.6703 67.0504 58.4314 53.0228 47.4221 40.2073 33.9479 32.1111 31.3337 29.0334 25.7718 22.6254 20.0148 19.8347 20.9756 21.1559 22.6785 24.2734 7.50782
265.5375 0.00025 1160.52 1003.7 1523.39 1798.56 1676.18 1446.1 1288.94 1189.93 1096.39 1001.51 958.471 869.755 826.951 849.943 830.516 813.078 777.354 761.201 719.434 693.757 709.207 650.23 640.587 655.663 685.839 662.097 575.125 539.916 523.731 532.247 509.136 455.985 455.172 439.983 451.177 451.39 435.858 425.262 426.393 392.223 399.558 414.814 399.187 383.136 373.246 352.024 313.984 311.729 305.876 281.729 255.38 246.447 245.499 241.88 235.236 228.776 225.623 217.511 228.816 224.069 202.39 200.213 203.302 202.861 194.659 184.838 175.284 165.03 154.418 136.968 122.806 114.684 116.667 111.016 94.7579 88.8445 87.1393 79.4728 75.2469 74.4293 71.2415 70.2685 67.1112 58.791 53.1158 47.649 40.5114 34.1877 32.0605 31.4373 29.0729 25.7823 22.6637 19.9946 19.7967 20.9456 21.1414 22.6939 24.3097 7.52171
265.54 0.00025 1159.35 1003.31 1521.02 1794.27 1675.22 1449.01 1290.94 1188.18 1093.44 998.966 956.192 870.511 824.908 852.252 831.35 813.862 780.869 759.982 718.183 698.27 710.693 649.687 638.248 655.901 686.315 662.722 577.73 537.651 523.279 532.767 510.236 456.813 454.745 438.281 448.378 448.11 434.054 424.62 427.044 391.567 399.269 412.303 400.506 383.945 373.746 353.246 315.116 310.838 305.121 282.276 256.084 245.787 245.445 242.377 234.558 228.413 225.248 217.74 227.756 223.496 201.913 200.84 203.127 202.271 194.365 184.94 175.831 165.122 153.993 136.633 123.048 114.425 116.456 110.839 94.5013 88.6342 87.0757 79.3079 74.7233 74.6154 71.2989 69.8591 67.1019 59.19 53.2117 47.8649 40.8033 34.4532 32.0161 31.5301 29.1175 25.7927 22.703 19.9758 19.7582 20.9147 21.1267 22.7093 24.3454 7.53529
265.5425 0.00025 1157.83 1002.72 1519.32 1788.97 1674.52 1451.68 1293.2 1186.77 1090.38 996.295 954.044 870.953 822.961 853.881 832.49 814.552 784.383 758.535 717.226 702.778 711.811 649.02 636.266 656.127 686.689 662.552 580.766 535.481 522.823 533.397 511.374 457.577 454.1 436.824 445.532 444.814 432.278 423.957 427.55 391.044 398.927 409.741 401.8 384.895 374.076 354.455 316.291 309.942 304.303 282.736 256.772 245.271 245.388 242.767 233.846 228.163 224.795 218.081 226.707 222.874 201.414 201.437 203.008 201.672 194.072 185.107 176.308 165.227 153.525 136.301 123.318 114.156 116.254 110.676 94.2493 88.4311 86.9797 79.2002 74.1761 74.7358 71.4253 69.4535 67.0227 59.6163 53.32 48.0681 41.0824 34.7411 31.9817 31.6115 29.1669 25.8031 22.743 19.9584 19.7191 20.8828 21.1116 22.7247 24.3807 7.54855
265.545 0.00025 1155.93 1002.03 1518.15 1782.68 1674.1 1454.06 1295.68 1185.74 1087.23 993.619 951.988 871.102 821.318 854.559 833.953 815.19 787.728 756.96 716.606 707.185 712.521 648.205 634.797 656.272 686.944 661.675 584.041 533.604 522.329 534.083 512.569 458.293 453.199 435.643 442.624 441.527 430.526 423.298 427.867 390.691 398.505 407.188 403.018 385.979 374.258 355.641 317.496 309.059 303.429 283.107 257.438 244.9 245.339 243.042 233.101 228.011 224.295 218.486 225.707 222.193 200.91 201.994 202.931 201.073 193.779 185.339 176.724 165.338 153.015 135.974 123.611 113.878 116.062 110.525 94.0035 88.2391 86.8489 79.1406 73.6265 74.7754 71.6158 69.0628 66.8773 60.0549 53.4508 48.2571 41.3494 35.0474 31.9608 31.6812 29.2205 25.814 22.7836 19.9425 19.6795 20.8501 21.0961 22.7403 24.4154 7.56148
265.5475 0.00025 1153.68 1001.4 1517.27 1775.68 1673.88 1456.21 1298.33 1185.05 1084 991.099 949.972 871.009 820.138 854.101 835.692 815.893 790.706 755.363 716.333 711.448 712.77 647.259 633.947 656.313 687.003 660.245 587.34 532.2 521.787 534.761 513.83 458.988 452.016 434.753 439.647 438.281 428.785 422.661 427.967 390.528 397.997 404.687 404.118 387.173 374.329 356.786 318.719 308.21 302.507 283.383 258.084 244.663 245.311 243.198 232.33 227.935 223.79 218.902 224.79 221.445 200.415 202.509 202.882 200.486 193.487 185.628 177.093 165.445 152.468 135.656 123.921 113.592 115.882 110.384 93.7652 88.0614 86.6833 79.1173 73.0945 74.7247 71.8618 68.697 66.6728 60.489 53.6141 48.4302 41.6051 35.368 31.9569 31.7388 29.2777 25.8255 22.8248 19.9282 19.6396 20.8164 21.0803 22.756 24.4496 7.57409
265.55 0.00025 1151.1 1000.91 1516.3 1768.34 1673.68 1458.3 1301.11 1184.62 1080.69 988.874 947.936 870.768 819.535 852.418 837.625 816.802 793.146 753.842 716.398 715.541 712.496 646.239 633.761 656.274 686.763 658.443 590.458 531.397 521.21 535.375 515.153 459.694 450.544 434.139 436.594 435.115 427.034 422.068 427.827 390.554 397.415 402.264 405.076 388.449 374.334 357.866 319.95 307.421 301.542 283.559 258.724 244.545 245.31 243.239 231.539 227.908 223.325 219.277 223.987 220.631 199.939 202.981 202.844 199.921 193.196 185.967 177.428 165.537 151.889 135.351 124.241 113.304 115.712 110.25 93.5356 87.9003 86.4857 79.117 72.5975 74.5797 72.1511 68.3645 66.4185 60.9018 53.8189 48.5865 41.8508 35.6983 31.9731 31.7846 29.3379 25.838 22.8663 19.9156 19.5992 20.7817 21.064 22.7718 24.4834 7.58637
265.5525 0.00025 1148.19 1000.61 1515 1761.09 1673.35 1460.5 1303.95 1184.39 1077.27 987.058 945.817 870.509 819.551 849.517 839.645 818.062 794.921 752.458 716.802 719.436 711.666 645.235 634.221 656.224 686.112 656.433 593.236 531.258 520.637 535.873 516.526 460.444 448.797 433.76 433.474 432.069 425.247 421.534 427.437 390.757 396.785 399.929 405.876 389.773 374.317 358.849 321.172 306.718 300.54 283.629 259.374 244.53 245.337 243.175 230.739 227.899 222.941 219.568 223.318 219.759 199.482 203.413 202.805 199.386 192.91 186.342 177.745 165.606 151.284 135.062 124.56 113.02 115.554 110.121 93.3162 87.7576 86.2606 79.1259 72.1493 74.3419 72.4692 68.0722 66.1253 61.2769 54.0724 48.7261 42.0873 36.034 32.012 31.819 29.4003 25.8517 22.9081 19.9047 19.5585 20.7461 21.0473 22.7877 24.5167 7.59833
265.555 0.00025 1144.98 1000.49 1513.19 1754.22 1672.74 1462.91 1306.7 1184.37 1073.76 985.739 943.563 870.361 820.177 845.506 841.654 819.789 795.949 751.223 717.568 723.065 710.271 644.343 635.259 656.253 684.98 654.336 595.582 531.774 520.136 536.211 517.926 461.273 446.807 433.548 430.31 429.18 423.395 421.075 426.799 391.111 396.14 397.679 406.511 391.108 374.319 359.71 322.372 306.126 299.51 283.588 260.045 244.606 245.386 243.019 229.936 227.881 222.674 219.738 222.796 218.841 199.042 203.81 202.749 198.889 192.631 186.741 178.059 165.643 150.657 134.794 124.87 112.744 115.406 109.995 93.1077 87.6341 86.0143 79.1306 71.7597 74.0178 72.8003 67.8249 65.8044 61.6001 54.3784 48.8511 42.315 36.371 32.0758 31.843 29.4641 25.8668 22.95 19.8957 19.5175 20.7095 21.03 22.8038 24.5497 7.60995
265.5575 0.00025 1141.56 1000.46 1510.71 1747.97 1671.87 1465.47 1309.21 1184.57 1070.16 984.941 941.15 870.449 821.345 840.559 843.545 822.1 796.194 750.107 718.746 726.327 708.344 643.65 636.777 656.447 683.342 652.212 597.469 532.874 519.795 536.358 519.325 462.209 444.628 433.417 427.131 426.48 421.452 420.7 425.925 391.584 395.517 395.512 406.977 392.423 374.373 360.427 323.538 305.668 298.458 283.435 260.744 244.768 245.445 242.786 229.14 227.828 222.546 219.769 222.419 217.897 198.616 204.175 202.671 198.434 192.365 187.15 178.383 165.641 150.017 134.548 125.16 112.486 115.268 109.869 92.9106 87.5301 85.7546 79.119 71.4345 73.6175 73.1281 67.6259 65.4672 61.8609 54.7374 48.9655 42.5337 36.7059 32.1656 31.858 29.5286 25.8836 22.992 19.8884 19.4763 20.672 21.0122 22.82 24.5822 7.62124
265.56 0.00025 1137.89 1000.38 1507.45 1742.39 1670.81 1467.99 1311.34 1185.03 1066.51 984.653 938.62 870.869 822.943 834.896 845.212 825.083 795.661 749.046 720.401 729.115 705.94 643.219 638.669 656.871 681.231 650.092 598.909 534.443 519.705 536.301 520.695 463.263 442.329 433.263 423.98 423.987 419.408 420.41 424.845 392.131 394.947 393.431 407.27 393.695 374.503 360.983 324.658 305.356 297.395 283.178 261.469 245.012 245.502 242.493 228.36 227.724 222.565 219.656 222.179 216.949 198.198 204.512 202.563 198.025 192.117 187.554 178.726 165.598 149.369 134.328 125.421 112.253 115.14 109.742 92.7252 87.4453 85.4892 79.0807 71.1752 73.1546 73.4366 67.4766 65.1238 62.0528 55.1454 49.0758 42.7422 37.036 32.2819 31.8655 29.5928 25.9021 23.0339 19.8831 19.4349 20.6336 20.9938 22.8364 24.6143 7.6322
265.5625 0.00025 1134.18 1000.11 1503.49 1737.32 1669.8 1470.23 1312.97 1185.81 1062.91 984.814 936.078 871.649 824.823 828.791 846.571 828.764 794.405 747.965 722.561 731.365 703.113 643.105 640.837 657.554 678.698 647.981 599.936 536.35 519.95 536.044 522.005 464.435 439.987 432.974 420.909 421.708 417.265 420.191 423.604 392.707 394.451 391.45 407.378 394.909 374.723 361.368 325.723 305.201 296.33 282.826 262.211 245.342 245.545 242.149 227.605 227.561 222.727 219.408 222.055 216.02 197.782 204.819 202.426 197.663 191.89 187.941 179.096 165.51 148.722 134.135 125.642 112.05 115.019 109.612 92.551 87.3791 85.2267 79.0074 70.9798 72.6444 73.7116 67.3768 64.7827 62.1733 55.5943 49.1904 42.939 37.3589 32.4244 31.8679 29.6558 25.9226 23.0758 19.8797 19.3933 20.5942 20.9747 22.8529 24.6461 7.64283
265.565 0.00025 1130.43 999.496 1498.88 1732.55 1669.05 1471.95 1314.1 1186.9 1059.51 985.326 933.699 872.761 826.808 822.536 847.6 833.057 792.53 746.792 725.184 733.104 699.905 643.344 643.2 658.501 675.817 645.887 600.6 538.472 520.593 535.605 523.232 465.709 437.682 432.442 417.972 419.633 415.042 420.011 422.259 393.263 394.032 389.592 407.284 396.064 375.038 361.584 326.727 305.202 295.275 282.398 262.954 245.757 245.57 241.758 226.882 227.336 223.013 219.048 222.02 215.135 197.367 205.095 202.261 197.347 191.69 188.299 179.496 165.377 148.083 133.97 125.815 111.885 114.906 109.477 92.3875 87.3305 84.9751 78.8935 70.8429 72.103 73.9408 67.325 64.4507 62.2241 56.0724 49.3193 43.1223 37.6733 32.5918 31.8677 29.7167 25.9451 23.1175 19.8783 19.3516 20.554 20.955 22.8696 24.6776 7.65313
265.5675 0.00025 1126.69 998.401 1493.79 1727.84 1668.59 1472.97 1314.82 1188.24 1056.49 986.048 931.701 874.134 828.687 816.439 848.363 837.755 790.218 745.448 728.15 734.444 696.37 643.959 645.685 659.699 672.655 643.827 600.949 540.709 521.668 535.023 524.357 467.062 435.484 431.572 415.223 417.742 412.772 419.829 420.874 393.76 393.68 387.896 406.963 397.165 375.443 361.638 327.665 305.352 294.244 281.916 263.68 246.253 245.579 241.317 226.198 227.054 223.396 218.606 222.041 214.317 196.955 205.334 202.07 197.078 191.522 188.619 179.925 165.202 147.462 133.833 125.934 111.761 114.801 109.338 92.2339 87.2982 84.7416 78.7359 70.7569 71.5461 74.1145 67.3178 64.1328 62.2103 56.5652 49.4728 43.2906 37.9777 32.7819 31.8676 29.7746 25.9697 23.1589 19.8791 19.3099 20.5129 20.9346 22.8864 24.7088 7.66309
265.57 0.00025 1123.03 996.683 1488.45 1723.03 1668.35 1473.33 1315.25 1189.66 1054.05 986.843 930.318 875.677 830.229 810.847 848.956 842.543 787.713 743.859 731.278 735.522 692.607 644.934 648.241 661.135 669.257 641.822 601.031 542.984 523.173 534.347 525.372 468.465 433.446 430.302 412.705 416.008 410.5 419.591 419.51 394.168 393.367 386.402 406.388 398.218 375.928 361.538 328.536 305.636 293.252 281.403 264.373 246.817 245.587 240.818 225.559 226.725 223.844 218.121 222.085 213.585 196.552 205.527 201.86 196.853 191.389 188.893 180.377 164.991 146.864 133.723 125.991 111.683 114.704 109.191 92.0891 87.2806 84.5327 78.5339 70.7122 70.9885 74.226 67.3511 63.8323 62.1401 57.0566 49.6606 43.4433 38.2712 32.9922 31.8704 29.8289 25.9964 23.2001 19.8819 19.2681 20.4709 20.9135 22.9032 24.7398 7.67272
265.5725 0.00025 1119.47 994.315 1483.16 1717.96 1668.12 1473.19 1315.47 1190.99 1052.38 987.597 929.746 877.289 831.182 806.12 849.477 847.07 785.267 741.959 734.372 736.449 688.795 646.192 650.825 662.807 665.657 639.892 600.897 545.237 525.079 533.638 526.274 469.884 431.6 428.604 410.449 414.4 408.276 419.238 418.223 394.471 393.055 385.146 405.544 399.226 376.478 361.302 329.338 306.034 292.317 280.88 265.021 247.429 245.612 240.253 224.965 226.359 224.32 217.629 222.117 212.954 196.165 205.665 201.635 196.67 191.295 189.115 180.844 164.75 146.298 133.638 125.983 111.652 114.617 109.038 91.952 87.2761 84.3537 78.2893 70.6988 70.4432 74.2718 67.4193 63.5516 62.0229 57.5303 49.8908 43.5811 38.5527 33.2196 31.879 29.8789 26.0249 23.2409 19.887 19.2264 20.4281 20.8916 22.9202 24.7705 7.68204
265.575 0.00025 1116 991.237 1478.12 1712.49 1667.61 1472.8 1315.41 1192.09 1051.65 988.251 930.115 878.877 831.353 802.605 849.981 851.039 783.104 739.708 737.215 737.285 685.17 647.606 653.405 664.713 661.888 638.056 600.607 547.419 527.329 532.96 527.068 471.279 429.961 426.486 408.47 412.896 406.151 418.714 417.055 394.67 392.702 384.157 404.432 400.182 377.079 360.946 330.074 306.52 291.462 280.365 265.615 248.064 245.677 239.618 224.413 225.971 224.789 217.166 222.106 212.433 195.808 205.737 201.399 196.53 191.243 189.282 181.315 164.488 145.769 133.576 125.909 111.667 114.54 108.875 91.8219 87.2826 84.2084 78.0057 70.7064 69.9205 74.2513 67.5163 63.2921 61.8688 57.9713 50.169 43.7062 38.8209 33.4608 31.8961 29.9247 26.0552 23.2812 19.8943 19.1847 20.3845 20.8689 22.9372 24.801 7.69105
265.5775 0.00025 1112.69 987.441 1473.41 1706.58 1666.59 1472.33 1314.91 1192.86 1051.96 988.818 931.466 880.338 830.641 800.554 850.482 854.257 781.376 737.104 739.578 738.059 681.986 649.029 655.965 666.829 657.981 636.322 600.215 549.496 529.849 532.37 527.768 472.606 428.528 423.996 406.762 411.482 404.166 417.968 416.032 394.778 392.273 383.441 403.071 401.072 377.724 360.485 330.747 307.065 290.711 279.87 266.152 248.693 245.798 238.918 223.896 225.575 225.216 216.764 222.029 212.026 195.494 205.734 201.157 196.433 191.237 189.392 181.776 164.215 145.282 133.535 125.767 111.728 114.477 108.702 91.6981 87.2979 84.0997 77.6885 70.7248 69.4285 74.1663 67.635 63.055 61.6872 58.3666 50.4979 43.8228 39.0742 33.7127 31.9238 29.9662 26.087 23.321 19.9039 19.1432 20.3401 20.8454 22.9542 24.8314 7.69974
265.58 0.00025 1109.63 983.088 1469.09 1700.24 1664.99 1471.93 1313.69 1193.24 1053.34 989.373 933.748 881.576 829.077 800.077 850.978 856.642 780.17 734.197 741.226 738.806 679.461 650.327 658.502 669.092 653.991 634.696 599.771 551.439 532.552 531.925 528.392 473.81 427.294 421.198 405.296 410.149 402.356 416.962 415.166 394.818 391.754 382.979 401.501 401.87 378.41 359.931 331.361 307.642 290.09 279.401 266.635 249.291 245.986 238.168 223.401 225.182 225.572 216.449 221.866 211.728 195.242 205.651 200.907 196.378 191.278 189.445 182.215 163.943 144.842 133.511 125.56 111.831 114.43 108.517 91.5803 87.3196 84.0289 77.3445 70.745 68.9723 74.0213 67.7682 62.8413 61.4869 58.7061 50.8767 43.9365 39.3109 33.9723 31.9639 30.0039 26.1199 23.3602 19.916 19.1019 20.2949 20.8211 22.9712 24.8617 7.70812
265.5825 0.00025 1106.81 978.299 1465.18 1693.54 1662.78 1471.58 1311.48 1193.23 1055.72 990.044 936.821 882.517 826.828 801.137 851.475 858.205 779.509 731.093 741.931 739.566 677.741 651.419 661.026 671.404 649.997 633.189 599.292 553.242 535.344 531.673 528.96 474.845 426.245 418.181 404.036 408.901 400.74 415.671 414.451 394.811 391.15 382.729 399.783 402.544 379.132 359.298 331.925 308.218 289.626 278.958 267.068 249.838 246.236 237.392 222.913 224.803 225.833 216.24 221.607 211.528 195.068 205.483 200.649 196.366 191.369 189.439 182.617 163.681 144.451 133.502 125.292 111.969 114.403 108.32 91.4682 87.3452 83.9961 76.9811 70.7591 68.555 73.8224 67.9083 62.652 61.2744 58.9834 51.3011 44.054 39.5294 34.2366 32.0175 30.0385 26.1535 23.3988 19.9304 19.0609 20.2489 20.796 22.9882 24.8918 7.71619
265.585 0.00025 1104.32 973.303 1461.84 1686.62 1660.03 1471.21 1308.13 1192.83 1058.99 990.958 940.455 883.117 824.142 803.556 851.972 859.04 779.347 727.915 741.519 740.362 676.885 652.286 663.552 673.634 646.087 631.813 598.767 554.914 538.127 531.65 529.49 475.665 425.361 415.039 402.934 407.742 399.329 414.09 413.867 394.787 390.488 382.623 397.985 403.059 379.892 358.597 332.445 308.766 289.34 278.535 267.46 250.327 246.531 236.625 222.421 224.441 225.978 216.148 221.25 211.408 194.99 205.231 200.378 196.4 191.51 189.378 182.968 163.439 144.111 133.506 124.968 112.136 114.398 108.11 91.3619 87.3721 84.0006 76.6065 70.7605 68.1771 73.577 68.0478 62.4883 61.0548 59.1951 51.764 44.183 39.7281 34.5034 32.0852 30.0711 26.1875 23.4365 19.9474 19.0201 20.2021 20.7701 23.0052 24.9219 7.72395
265.5875 0.00025 1102.08 968.284 1459.1 1679.68 1656.79 1470.65 1303.59 1192.05 1062.96 992.262 944.404 883.366 821.322 807.057 852.47 859.287 779.577 724.771 739.937 741.176 676.876 652.978 666.099 675.63 642.358 630.598 598.168 556.481 540.801 531.882 529.99 476.239 424.613 411.874 401.935 406.677 398.124 412.231 413.386 394.765 389.82 382.578 396.18 403.388 380.683 357.843 332.925 309.264 289.251 278.127 267.817 250.759 246.845 235.902 221.916 224.096 225.995 216.176 220.803 211.345 195.025 204.903 200.085 196.481 191.701 189.263 183.258 163.228 143.822 133.52 124.597 112.323 114.419 107.886 91.2615 87.3977 84.0404 76.2291 70.7444 67.8373 73.293 68.1797 62.3517 60.8312 59.3415 52.2554 44.3318 39.9063 34.7701 32.167 30.1029 26.2214 23.4732 19.967 18.9798 20.1546 20.7434 23.022 24.952 7.73141
265.59 0.00025 1100.1 963.433 1456.98 1672.95 1653.12 1469.68 1298.04 1190.99 1067.42 994.097 948.396 883.282 818.683 811.297 852.973 859.131 780.035 721.727 737.261 741.941 677.648 653.583 668.679 677.236 638.902 629.57 597.446 557.976 543.276 532.389 530.458 476.553 423.969 408.791 400.99 405.712 397.116 410.123 412.97 394.762 389.209 382.509 394.432 403.517 381.496 357.054 333.37 309.695 289.368 277.725 268.144 251.145 247.14 235.255 221.399 223.76 225.88 216.318 220.281 211.312 195.186 204.509 199.762 196.611 191.941 189.097 183.475 163.053 143.586 133.542 124.188 112.522 114.467 107.648 91.167 87.4195 84.1128 75.8572 70.7067 67.5332 72.9788 68.298 62.2435 60.6055 59.4254 52.7638 44.5081 40.0641 35.0346 32.2624 30.1351 26.255 23.5088 19.9891 18.94 20.1064 20.7158 23.0386 24.9821 7.73858
265.5925 0.00025 1098.34 958.911 1455.51 1666.68 1649.09 1467.96 1291.77 1189.71 1072.11 996.592 952.203 882.907 816.519 815.9 853.475 858.764 780.535 718.816 733.699 742.542 679.101 654.213 671.296 678.3 635.801 628.766 596.565 559.426 545.482 533.188 530.878 476.611 423.391 405.887 400.055 404.848 396.287 407.808 412.578 394.789 388.726 382.342 392.786 403.441 382.315 356.254 333.778 310.053 289.689 277.322 268.444 251.504 247.38 234.706 220.882 223.42 225.632 216.564 219.703 211.282 195.48 204.065 199.397 196.792 192.23 188.883 183.611 162.92 143.401 133.568 123.751 112.723 114.543 107.398 91.0783 87.4353 84.2144 75.4986 70.6451 67.2615 72.6421 68.3973 62.1647 60.3782 59.4515 53.2763 44.7191 40.2021 35.295 32.3706 30.1693 26.2882 23.543 20.0139 18.9007 20.0575 20.6874 23.055 25.0122 7.74548