265.5025 0.00025 0.104574 0.168269 0.271616 0.287132 0.289044 0.264629 0.244257 0.230888 0.214564 0.201245 0.20302 0.212168 0.216226 0.22053 0.225078 0.216729 0.217284 0.221986 0.219122 0.208748 0.198707 0.180271 0.169813 0.166769 0.169527 0.17169 0.176668 0.16975 0.161315 0.157233 0.152751 0.14656 0.140973 0.132223 0.124227 0.12471 0.133331 0.135112 0.130551 0.129013 0.12558 0.117304 0.116023 0.112934 0.111894 0.111422 0.104443 0.0975732 0.0943311 0.0876011 0.0885464 0.0854119 0.0841518 0.0869418 0.0843008 0.0868635 0.0890558 0.0861681 0.0818749 0.0800483 0.0778516 0.0733928 0.0664166 0.0599848 0.0568573 0.0561485 0.0558886 0.0534586 0.0520808 0.0517862 0.0512639 0.0471809 0.0435827 0.0393157 0.037129 0.0356872 0.034099 0.0328782 0.0316935 0.030221 0.0290895 0.0283852 0.0281217 0.0273138 0.0257471 0.0242584 0.0226681 0.0202912 0.0182734 0.0159483 0.0130438 0.0107865 0.00933657 0.00846654 0.00864105 0.00967514 0.0111475 0.0124629 0.0145519 0.018732
265.505 0.00025 0.104853 0.168677 0.272019 0.286519 0.288675 0.265006 0.245259 0.231631 0.214726 0.200822 0.203348 0.212211 0.215638 0.219989 0.224991 0.216779 0.217487 0.221821 0.21965 0.209717 0.198324 0.179722 0.169325 0.165893 0.1689 0.171561 0.177042 0.170025 0.161681 0.157038 0.1525 0.145987 0.14036 0.131739 0.123792 0.124587 0.133379 0.13499 0.130647 0.129243 0.125648 0.117003 0.115646 0.112719 0.111699 0.111215 0.104569 0.0975582 0.0942514 0.087803 0.0886865 0.0854515 0.0841946 0.0869685 0.084413 0.0869871 0.0892385 0.0863778 0.0818899 0.0799094 0.0778734 0.0734845 0.0665002 0.0600547 0.0568091 0.0561302 0.05595 0.0535018 0.0520789 0.0517295 0.0510714 0.0470553 0.0435114 0.0392817 0.0370798 0.0356098 0.034103 0.0328968 0.0317576 0.0303263 0.0291162 0.0283669 0.0281229 0.0273425 0.0257775 0.0242866 0.0227284 0.0203736 0.0183372 0.016021 0.0131188 0.0108315 0.00935925 0.00847647 0.00864631 0.00967971 0.0111536 0.012465 0.0145505 0.0187348
265.5075 0.00025 0.105119 0.169077 0.272401 0.285907 0.288221 0.265343 0.246368 0.232491 0.214944 0.200432 0.203567 0.21221 0.215 0.219428 0.224886 0.216875 0.21771 0.221622 0.220078 0.210693 0.197899 0.179229 0.168875 0.165018 0.168173 0.171432 0.177452 0.170312 0.162065 0.156877 0.152255 0.145398 0.139737 0.131284 0.123391 0.124474 0.133407 0.134861 0.130732 0.129439 0.125718 0.116729 0.115284 0.112506 0.111521 0.110981 0.104689 0.0975652 0.0941763 0.0880162 0.0888423 0.0855089 0.08424 0.0869797 0.0845309 0.0871164 0.0894026 0.0865809 0.081907 0.07978 0.0778971 0.0735777 0.0665861 0.0601279 0.0567682 0.0561074 0.0560033 0.0535537 0.052091 0.051678 0.050871 0.0469262 0.0434381 0.0392471 0.0370316 0.0355296 0.0341035 0.0329227 0.0318125 0.0304333 0.0291511 0.0283513 0.0281199 0.0273708 0.0258073 0.024315 0.0227861 0.0204564 0.0184024 0.0160926 0.0131942 0.0108772 0.00938212 0.00848673 0.00865176 0.00968419 0.0111596 0.0124672 0.0145491 0.0187375
265.51 0.00025 0.105363 0.169471 0.272775 0.285312 0.287695 0.265626 0.247575 0.233428 0.215219 0.200086 0.203673 0.212146 0.214324 0.218862 0.22477 0.217022 0.21795 0.221398 0.220398 0.211642 0.197455 0.178792 0.168459 0.164162 0.167355 0.171285 0.177885 0.170613 0.162458 0.156748 0.152013 0.144794 0.139103 0.130856 0.123023 0.124369 0.133414 0.134731 0.130801 0.129597 0.125787 0.116481 0.114937 0.112293 0.111354 0.110721 0.104798 0.0975982 0.0941105 0.0882348 0.0890087 0.0855861 0.0842898 0.0869724 0.0846533 0.087251 0.0895468 0.0867762 0.0819238 0.0796618 0.0779225 0.07367 0.0666736 0.0602022 0.056735 0.056081 0.0560473 0.053613 0.0521173 0.0516324 0.0506632 0.0467937 0.0433632 0.0392118 0.0369844 0.0354478 0.0340996 0.0329572 0.0318598 0.0305384 0.0291949 0.0283396 0.0281128 0.0273984 0.0258365 0.0243434 0.0228412 0.0205392 0.018469 0.016163 0.0132696 0.0109236 0.00940514 0.00849728 0.0086574 0.0096885 0.0111653 0.0124692 0.0145478 0.0187399
265.5125 0.00025 0.10558 0.169852 0.273147 0.284716 0.28711 0.265862 0.248872 0.234417 0.215545 0.199793 0.203671 0.212007 0.21363 0.218317 0.224656 0.217219 0.218206 0.221163 0.22061 0.212529 0.197019 0.178417 0.168073 0.163346 0.166466 0.171104 0.178332 0.170932 0.162856 0.156644 0.151766 0.14418 0.138465 0.130458 0.122693 0.12427 0.133397 0.134599 0.130849 0.129718 0.125851 0.116259 0.11461 0.112092 0.111196 0.11044 0.10489 0.0976552 0.0940596 0.0884543 0.0891826 0.0856855 0.0843452 0.0869467 0.0847777 0.0873927 0.0896731 0.0869627 0.0819393 0.0795556 0.0779507 0.0737595 0.0667634 0.0602783 0.0567102 0.0560523 0.0560807 0.0536783 0.0521574 0.0515923 0.0504488 0.0466584 0.0432864 0.0391752 0.0369382 0.0353653 0.0340895 0.0329999 0.0319019 0.0306391 0.0292476 0.028333 0.028102 0.0274251 0.0258656 0.0243723 0.0228939 0.0206217 0.0185372 0.0162324 0.0133451 0.0109707 0.00942834 0.0085081 0.00866324 0.00969266 0.0111708 0.0124712 0.0145464 0.018742
265.515 0.00025 0.10577 0.170222 0.273527 0.284129 0.286486 0.266049 0.250224 0.23542 0.215932 0.199566 0.20356 0.211772 0.21293 0.217802 0.224554 0.217468 0.218474 0.220925 0.220714 0.21332 0.196608 0.178102 0.167718 0.162585 0.165532 0.170875 0.178777 0.171268 0.163256 0.156567 0.151519 0.143564 0.137827 0.130091 0.122405 0.124179 0.133356 0.134467 0.130873 0.1298 0.125904 0.116065 0.114303 0.111903 0.111043 0.110145 0.104963 0.0977372 0.094031 0.0886693 0.0893592 0.0858067 0.0844075 0.0869019 0.0849026 0.0875417 0.0897842 0.0871399 0.0819539 0.079462 0.0779823 0.0738448 0.0668551 0.0603562 0.0566946 0.0560229 0.0561028 0.0537482 0.0522108 0.051558 0.0502285 0.0465204 0.0432084 0.0391374 0.0368932 0.0352831 0.034073 0.0330507 0.0319413 0.0307329 0.0293086 0.0283322 0.0280878 0.0274503 0.0258948 0.0244017 0.0229445 0.0207037 0.0186071 0.0163008 0.0134205 0.0110185 0.00945175 0.0085192 0.00866931 0.00969674 0.0111761 0.0124732 0.0145451 0.018744
265.5175 0.00025 0.105923 0.17057 0.273897 0.283543 0.285835 0.266181 0.251584 0.236403 0.216372 0.199407 0.203351 0.211429 0.212248 0.217341 0.22447 0.217763 0.218749 0.220693 0.22072 0.213985 0.19624 0.177843 0.167394 0.161891 0.164581 0.170588 0.179209 0.17162 0.163652 0.156505 0.15126 0.142953 0.137195 0.129752 0.122162 0.124097 0.133292 0.134335 0.130869 0.129849 0.125945 0.1159 0.114015 0.111735 0.110898 0.10984 0.105013 0.0978434 0.0940302 0.0888792 0.0895363 0.0859524 0.0844792 0.0868387 0.0850255 0.0876962 0.0898822 0.0873067 0.0819684 0.0793808 0.0780202 0.0739245 0.0669479 0.0604351 0.0566883 0.055993 0.0561126 0.0538214 0.0522772 0.0515296 0.0500036 0.0463809 0.043129 0.0390985 0.0368493 0.0352015 0.034049 0.0331084 0.0319808 0.030818 0.0293771 0.0283381 0.0280709 0.0274733 0.025924 0.0244318 0.0229931 0.0207846 0.0186787 0.0163685 0.0134957 0.011067 0.00947536 0.00853061 0.00867561 0.00970073 0.0111811 0.0124752 0.0145438 0.0187458
265.52 0.00025 0.106048 0.170891 0.274266 0.282961 0.285169 0.266258 0.252928 0.237338 0.216872 0.199316 0.203047 0.210971 0.2116 0.216942 0.224411 0.218088 0.21903 0.220473 0.220637 0.214491 0.195927 0.177639 0.167106 0.161268 0.163643 0.170227 0.179606 0.171985 0.164048 0.156455 0.150987 0.142355 0.136573 0.129443 0.121959 0.124026 0.133204 0.134199 0.130833 0.129861 0.12597 0.11577 0.113741 0.111593 0.110758 0.109528 0.105037 0.097973 0.0940592 0.0890826 0.0897076 0.0861203 0.0845607 0.0867587 0.0851443 0.0878553 0.0899718 0.087462 0.0819844 0.0793125 0.078065 0.0739962 0.0670406 0.0605161 0.0566915 0.0559662 0.0561125 0.0538969 0.0523568 0.0515073 0.0497752 0.04624 0.0430487 0.0390579 0.0368063 0.0351215 0.0340175 0.0331713 0.0320228 0.0308931 0.0294513 0.0283516 0.0280524 0.0274938 0.0259536 0.0244624 0.02304 0.0208641 0.0187517 0.0164355 0.0135705 0.0111161 0.00949917 0.00854226 0.00868209 0.00970458 0.011186 0.012477 0.0145425 0.0187474
265.5225 0.00025 0.106143 0.171174 0.274603 0.282366 0.284491 0.266275 0.254225 0.238207 0.217426 0.199311 0.202664 0.210391 0.210996 0.216609 0.224382 0.218426 0.219309 0.220275 0.220482 0.214819 0.195685 0.177494 0.166861 0.160728 0.162745 0.169791 0.179947 0.172366 0.164441 0.156413 0.150699 0.141777 0.135965 0.12916 0.121797 0.123966 0.133097 0.13406 0.130762 0.129842 0.125979 0.115676 0.113478 0.111486 0.110626 0.109215 0.105034 0.0981234 0.0941223 0.0892801 0.0898709 0.0863112 0.084653 0.0866629 0.0852567 0.0880166 0.0900543 0.0876032 0.082001 0.0792543 0.0781176 0.0740606 0.0671337 0.0605996 0.056705 0.0559416 0.0561019 0.0539727 0.0524475 0.0514907 0.0495437 0.0460983 0.0429673 0.0390155 0.0367647 0.0350438 0.033979 0.0332377 0.03207 0.0309578 0.0295293 0.0283733 0.0280337 0.0275111 0.0259835 0.0244939 0.0230855 0.0209419 0.0188264 0.016502 0.013645 0.011166 0.00952319 0.00855414 0.00868877 0.00970832 0.0111905 0.0124788 0.0145413 0.0187487
265.525 0.00025 0.106211 0.171431 0.274912 0.281751 0.283791 0.266246 0.255456 0.238978 0.218014 0.199394 0.202224 0.209688 0.210453 0.216358 0.224391 0.218759 0.219582 0.2201 0.220261 0.214959 0.195508 0.177399 0.16667 0.160271 0.161917 0.169282 0.180212 0.172757 0.164831 0.156371 0.150389 0.141228 0.135379 0.128901 0.121677 0.123921 0.132975 0.133919 0.130654 0.129792 0.12597 0.11562 0.113221 0.111408 0.110501 0.1089 0.105001 0.0982933 0.094224 0.0894727 0.0900218 0.0865226 0.0847585 0.0865556 0.0853611 0.0881756 0.0901333 0.0877303 0.0820204 0.0792064 0.0781791 0.074115 0.0672248 0.0606864 0.0567268 0.0559194 0.056082 0.0540472 0.0525488 0.0514796 0.0493103 0.0459563 0.0428843 0.0389714 0.0367242 0.0349683 0.0339341 0.0333056 0.032124 0.0310124 0.0296085 0.0284032 0.0280157 0.0275244 0.0260138 0.0245262 0.0231298 0.0210177 0.0189022 0.016568 0.013719 0.0112164 0.00954743 0.00856623 0.00869566 0.00971197 0.0111948 0.0124805 0.0145401 0.0187498
265.5275 0.00025 0.106247 0.17165 0.275163 0.281118 0.283051 0.266195 0.256602 0.239645 0.218623 0.199571 0.201738 0.208857 0.20997 0.216189 0.224445 0.219066 0.219848 0.21995 0.219985 0.21491 0.195388 0.177352 0.166536 0.159899 0.161178 0.168714 0.180375 0.173152 0.165221 0.156326 0.150052 0.140714 0.134821 0.128671 0.121592 0.123889 0.132838 0.133771 0.130508 0.129714 0.125943 0.115606 0.112968 0.111366 0.110391 0.108584 0.104941 0.0984776 0.0943619 0.0896621 0.0901582 0.0867516 0.0848779 0.0864411 0.0854559 0.0883291 0.0902117 0.0878415 0.0820453 0.0791676 0.0782508 0.0741605 0.0673137 0.0607773 0.0567575 0.0559012 0.0560554 0.0541194 0.0526594 0.0514736 0.0490763 0.0458145 0.0428004 0.0389253 0.0366851 0.0348955 0.0338837 0.0333728 0.0321861 0.031058 0.0296868 0.0284419 0.0279999 0.0275335 0.0260445 0.0245594 0.0231732 0.0210911 0.0189792 0.0166337 0.0137925 0.0112675 0.00957193 0.00857856 0.0087028 0.00971557 0.0111989 0.0124821 0.0145389 0.0187508
265.53 0.00025 0.106256 0.171828 0.275366 0.280465 0.282258 0.266152 0.257638 0.240191 0.219228 0.199854 0.201225 0.207907 0.209539 0.216101 0.224543 0.219321 0.220086 0.219823 0.219652 0.214674 0.195315 0.177352 0.166466 0.15961 0.160542 0.16811 0.180413 0.173547 0.165614 0.156275 0.149688 0.140244 0.1343 0.128464 0.121541 0.123871 0.132691 0.133614 0.130325 0.129607 0.125899 0.115631 0.112719 0.111353 0.110304 0.10827 0.104849 0.0986735 0.0945396 0.0898519 0.0902789 0.0869937 0.0850118 0.0863227 0.085538 0.088475 0.0902932 0.0879393 0.0820754 0.0791379 0.0783304 0.0741958 0.0673989 0.0608729 0.0567955 0.0558861 0.0560221 0.0541871 0.0527783 0.0514728 0.0488427 0.0456736 0.0427148 0.0388766 0.0366478 0.0348256 0.0338289 0.0334376 0.0322574 0.0310969 0.0297618 0.0284887 0.0279875 0.0275382 0.0260757 0.0245939 0.0232161 0.0211621 0.0190571 0.0166994 0.0138654 0.0113191 0.00959667 0.00859107 0.0087101 0.00971905 0.0112027 0.0124836 0.0145378 0.0187515
265.5325 0.00025 0.106234 0.171959 0.275513 0.279776 0.281392 0.266133 0.258552 0.240607 0.219813 0.200236 0.200709 0.206863 0.209154 0.216093 0.224684 0.219511 0.220292 0.219724 0.219275 0.214268 0.195277 0.177401 0.166471 0.159408 0.160009 0.167488 0.180302 0.173936 0.166017 0.156212 0.149292 0.139823 0.133818 0.12828 0.121522 0.123868 0.132541 0.133451 0.130109 0.129473 0.125837 0.115695 0.112473 0.111362 0.110246 0.107958 0.10473 0.09888 0.0947563 0.0900437 0.0903842 0.0872458 0.0851585 0.0862042 0.0856074 0.0886093 0.0903763 0.088023 0.0821118 0.079117 0.0784188 0.0742207 0.0674785 0.0609744 0.0568425 0.0558751 0.0559848 0.0542503 0.0529042 0.0514768 0.0486105 0.0455346 0.0426279 0.0388262 0.0366121 0.0347584 0.0337709 0.0334983 0.0323376 0.0311306 0.0298311 0.0285432 0.02798 0.0275384 0.0261069 0.0246297 0.0232588 0.0212305 0.0191358 0.016765 0.0139376 0.0113713 0.00962166 0.00860377 0.00871763 0.00972247 0.0112063 0.0124851 0.0145367 0.0187521
265.535 0.00025 0.106189 0.172039 0.275584 0.279056 0.280468 0.266166 0.259349 0.240889 0.220349 0.200719 0.200211 0.20575 0.208802 0.216155 0.224851 0.219616 0.220455 0.219652 0.218861 0.213715 0.195263 0.177495 0.16655 0.159291 0.159581 0.166881 0.180029 0.174306 0.166426 0.156135 0.148858 0.13946 0.133386 0.128118 0.121534 0.123883 0.132385 0.133278 0.129863 0.129306 0.12576 0.115794 0.112234 0.111384 0.110221 0.107646 0.104582 0.0990921 0.0950097 0.0902413 0.0904758 0.0875025 0.0853201 0.0860917 0.0856627 0.0887288 0.0904624 0.088095 0.082155 0.079106 0.0785149 0.074237 0.0675523 0.0610817 0.056896 0.0558674 0.0559449 0.054308 0.0530351 0.0514838 0.0483808 0.0453975 0.0425387 0.0387735 0.0365781 0.0346938 0.0337107 0.0335532 0.032426 0.0311617 0.0298929 0.0286042 0.0279788 0.0275346 0.026138 0.0246672 0.0233017 0.0212964 0.0192148 0.0168309 0.0140091 0.0114239 0.00964696 0.00861666 0.00872538 0.00972586 0.0112096 0.0124864 0.0145356 0.0187524
265.5375 0.00025 0.106114 0.172053 0.275587 0.278282 0.27947 0.266256 0.260018 0.241024 0.22082 0.2013 0.19975 0.204603 0.208469 0.216281 0.225032 0.219629 0.220569 0.219603 0.218417 0.213041 0.195258 0.177633 0.166705 0.159265 0.159248 0.16631 0.179583 0.174643 0.166841 0.156042 0.148391 0.139153 0.133008 0.127973 0.121573 0.123912 0.132224 0.133097 0.129594 0.12911 0.125672 0.115929 0.112006 0.111413 0.110233 0.10734 0.104409 0.0993066 0.0952977 0.0904483 0.0905562 0.0877605 0.0854944 0.08599 0.0857038 0.0888308 0.090551 0.0881574 0.0822046 0.079105 0.0786167 0.0742443 0.0676195 0.0611956 0.0569574 0.055862 0.0559029 0.054359 0.0531694 0.0514939 0.048155 0.0452637 0.042448 0.038719 0.0365461 0.0346319 0.0336497 0.0336021 0.0325222 0.0311928 0.0299457 0.0286707 0.0279843 0.0275273 0.0261685 0.0247063 0.023345 0.0213596 0.0192939 0.0168969 0.01408 0.011477 0.00967257 0.00862972 0.00873336 0.00972922 0.0112127 0.0124877 0.0145346 0.0187526
265.54 0.00025 0.106019 0.172011 0.275501 0.277445 0.278396 0.266434 0.26056 0.241005 0.221209 0.201961 0.199343 0.203457 0.208147 0.216455 0.225203 0.219551 0.220624 0.219566 0.21793 0.212276 0.195251 0.177809 0.166934 0.159331 0.159006 0.165798 0.178973 0.174934 0.167267 0.155932 0.147889 0.138907 0.132694 0.127842 0.121642 0.123957 0.132063 0.13291 0.129308 0.128878 0.125572 0.116091 0.111793 0.111443 0.110284 0.107041 0.104211 0.0995219 0.0956183 0.0906664 0.0906257 0.0880144 0.0856787 0.0859003 0.0857292 0.0889115 0.0906397 0.0882129 0.08226 0.0791148 0.0787231 0.074243 0.0676787 0.0613154 0.0570264 0.0558598 0.0558611 0.054404 0.0533064 0.0515067 0.0479349 0.0451332 0.0423551 0.0386624 0.0365162 0.0345728 0.0335886 0.0336441 0.0326246 0.031226 0.029989 0.0287409 0.0279972 0.0275173 0.0261978 0.0247474 0.0233891 0.0214204 0.0193728 0.0169633 0.0141502 0.0115306 0.00969851 0.00864298 0.00874156 0.00973253 0.0112156 0.0124888 0.0145336 0.0187526
265.5425 0.00025 0.105899 0.17191 0.275324 0.276533 0.277276 0.266704 0.260977 0.240816 0.221496 0.202696 0.199011 0.202361 0.207832 0.216668 0.225342 0.219382 0.220615 0.219533 0.217402 0.211449 0.195236 0.178022 0.167235 0.159498 0.158847 0.16536 0.178216 0.175158 0.167696 0.155805 0.14736 0.138722 0.132449 0.127722 0.121738 0.124013 0.131896 0.132715 0.129012 0.128612 0.125466 0.116279 0.111598 0.111468 0.110373 0.106755 0.103988 0.0997347 0.0959645 0.0908996 0.090689 0.0882609 0.0858723 0.0858282 0.0857408 0.0889701 0.0907246 0.088265 0.0823219 0.0791363 0.078833 0.0742321 0.0677304 0.0614404 0.0571025 0.05586 0.0558204 0.0544429 0.0534437 0.0515209 0.0477216 0.0450068 0.0422597 0.0386039 0.0364879 0.0345159 0.0335284 0.0336791 0.0327313 0.0312634 0.0300225 0.028813 0.0280174 0.0275053 0.0262254 0.0247904 0.0234341 0.0214787 0.0194509 0.01703 0.0142196 0.0115844 0.0097247 0.00865635 0.00874995 0.0097358 0.0112181 0.0124898 0.0145327 0.0187524
265.545 0.00025 0.105756 0.171738 0.275025 0.275523 0.276112 0.267065 0.261284 0.24047 0.221669 0.203477 0.198777 0.201364 0.207529 0.216913 0.225422 0.219125 0.220548 0.219488 0.216827 0.210594 0.195204 0.178271 0.167602 0.159766 0.158768 0.164996 0.177344 0.175294 0.16812 0.155658 0.146809 0.138592 0.13228 0.127611 0.121861 0.12408 0.131724 0.132514 0.128715 0.128313 0.125354 0.116486 0.111425 0.111485 0.110497 0.106487 0.103747 0.0999437 0.0963366 0.091152 0.0907492 0.0884995 0.0860741 0.085776 0.0857385 0.0890062 0.0908044 0.0883164 0.0823899 0.0791698 0.0789439 0.0742133 0.0677753 0.0615699 0.0571855 0.0558612 0.0557798 0.0544752 0.0535803 0.0515357 0.0475164 0.0448851 0.042162 0.0385436 0.0364619 0.0344617 0.0334698 0.0337073 0.0328407 0.0313069 0.0300467 0.0288852 0.0280452 0.0274928 0.0262508 0.0248354 0.0234803 0.021535 0.019528 0.0170971 0.0142883 0.0116386 0.00975123 0.00866986 0.00875853 0.00973904 0.0112204 0.0124906 0.0145317 0.018752
265.5475 0.00025 0.105599 0.171503 0.274599 0.274425 0.274926 0.267511 0.261491 0.239961 0.221713 0.204272 0.198661 0.200505 0.207239 0.217175 0.22542 0.218786 0.220435 0.219415 0.216205 0.209732 0.195163 0.178558 0.168036 0.160132 0.158763 0.1647 0.176393 0.175327 0.168536 0.155502 0.146248 0.138515 0.13219 0.127509 0.122013 0.124155 0.131551 0.132312 0.128423 0.127985 0.125239 0.116711 0.111273 0.111489 0.110651 0.106243 0.103488 0.100142 0.0967281 0.0914267 0.09081 0.0887275 0.0862807 0.0857473 0.085726 0.0890192 0.0908736 0.0883695 0.0824637 0.0792152 0.0790541 0.0741858 0.0678126 0.0617034 0.0572764 0.0558642 0.0557411 0.0545024 0.0537148 0.0515494 0.0473204 0.0447674 0.0420615 0.0384813 0.0364376 0.0344102 0.0334129 0.0337293 0.0329506 0.0313573 0.0300625 0.0289559 0.0280802 0.0274809 0.0262734 0.0248824 0.0235281 0.0215895 0.0196039 0.0171647 0.0143563 0.0116931 0.00977811 0.00868349 0.00876728 0.00974225 0.0112225 0.0124914 0.0145308 0.0187514
265.55 0.00025 0.105432 0.171207 0.274056 0.273219 0.273752 0.268017 0.261625 0.239323 0.22162 0.20505 0.198673 0.199812 0.206963 0.21744 0.225313 0.218357 0.220279 0.219303 0.215536 0.208878 0.195116 0.178874 0.168531 0.160592 0.158832 0.164459 0.175407 0.175239 0.168926 0.155337 0.145687 0.138484 0.132178 0.127411 0.12219 0.124236 0.131375 0.132102 0.128144 0.127632 0.125119 0.116947 0.111149 0.11148 0.110825 0.106025 0.103215 0.100326 0.0971344 0.0917284 0.0908729 0.0889438 0.0864891 0.0857414 0.0857031 0.0890091 0.0909293 0.088428 0.0825445 0.0792746 0.0791643 0.0741512 0.0678435 0.0618397 0.0573745 0.055869 0.0557043 0.0545244 0.0538454 0.0515614 0.0471357 0.0446546 0.041959 0.0384178 0.0364154 0.0343615 0.0333585 0.033746 0.0330597 0.0314156 0.0300714 0.0290233 0.028122 0.0274709 0.0262927 0.0249316 0.0235778 0.0216424 0.019678 0.0172326 0.0144236 0.0117477 0.00980535 0.00869723 0.00877621 0.00974546 0.0112243 0.012492 0.01453 0.0187507
265.5525 0.00025 0.105254 0.170846 0.273384 0.271902 0.272626 0.26857 0.261693 0.238557 0.221382 0.205764 0.198828 0.199308 0.206702 0.217696 0.225083 0.217851 0.220094 0.219136 0.214819 0.208048 0.195076 0.17922 0.16909 0.161142 0.158979 0.164268 0.174428 0.175022 0.169274 0.155169 0.145137 0.138491 0.132247 0.127327 0.122392 0.124316 0.131199 0.131884 0.127879 0.127258 0.124995 0.117191 0.111051 0.11146 0.111014 0.105838 0.102934 0.100496 0.0975484 0.0920549 0.0909396 0.0891463 0.0866966 0.0857594 0.0856731 0.0889751 0.0909654 0.0884923 0.0826319 0.0793462 0.0792713 0.0741088 0.0678684 0.0619781 0.0574801 0.0558748 0.0556682 0.0545424 0.053971 0.0515704 0.0469634 0.044547 0.0418539 0.0383525 0.036395 0.0343156 0.0333066 0.0337584 0.033166 0.031482 0.0300748 0.0290857 0.0281693 0.0274639 0.0263081 0.0249823 0.0236293 0.0216939 0.0197501 0.0173008 0.0144903 0.0118024 0.00983294 0.00871107 0.00878529 0.00974861 0.0112258 0.0124924 0.0145291 0.0187498
265.555 0.00025 0.105064 0.170426 0.272594 0.270479 0.271559 0.269136 0.261723 0.237692 0.220996 0.206387 0.199128 0.199008 0.206473 0.217935 0.224723 0.217272 0.219883 0.21891 0.214053 0.207252 0.195057 0.179598 0.16972 0.16177 0.159199 0.16411 0.173487 0.174677 0.169562 0.155001 0.144609 0.138524 0.13239 0.127259 0.122615 0.124391 0.131023 0.131655 0.127638 0.126873 0.124864 0.11744 0.110983 0.111425 0.111207 0.105686 0.102649 0.100652 0.0979681 0.092411 0.091014 0.0893359 0.0869028 0.0858018 0.0856394 0.0889187 0.0909801 0.0885642 0.082728 0.0794321 0.0793755 0.0740603 0.0678879 0.0621172 0.057593 0.055883 0.0556332 0.0545574 0.05409 0.051576 0.0468051 0.0444444 0.0417466 0.0382854 0.0363769 0.0342733 0.0332571 0.0337672 0.0332683 0.0315567 0.0300747 0.0291422 0.0282214 0.0274613 0.0263197 0.0250349 0.0236833 0.0217447 0.01982 0.0173693 0.0145564 0.0118574 0.00986094 0.00872504 0.00879458 0.00975183 0.0112272 0.0124927 0.0145283 0.0187487
265.5575 0.00025 0.104868 0.169963 0.271681 0.268953 0.270543 0.269685 0.261738 0.236745 0.220463 0.20689 0.199576 0.198913 0.206275 0.218151 0.224231 0.21662 0.219653 0.218612 0.213232 0.206497 0.195061 0.18001 0.170417 0.162468 0.159485 0.163984 0.172609 0.174206 0.16977 0.154834 0.144114 0.138581 0.1326 0.127212 0.122859 0.12446 0.130853 0.131416 0.12742 0.12648 0.124727 0.117691 0.110946 0.111376 0.111399 0.10557 0.102368 0.100794 0.0983893 0.0927955 0.0910998 0.0895134 0.0871071 0.0858685 0.0856051 0.0888395 0.0909685 0.0886417 0.0828336 0.079531 0.0794754 0.0740061 0.0679026 0.0622568 0.0577136 0.0558934 0.0555989 0.0545703 0.0542009 0.0515764 0.0466615 0.044347 0.0416381 0.0382166 0.0363604 0.0342343 0.0332097 0.0337732 0.0333652 0.0316387 0.030073 0.0291918 0.0282767 0.0274635 0.0263272 0.0250885 0.0237399 0.0217948 0.0198874 0.0174378 0.0146218 0.0119123 0.00988927 0.00873907 0.00880396 0.00975499 0.0112283 0.0124928 0.0145274 0.0187475
265.56 0.00025 0.10466 0.169451 0.270649 0.267366 0.269598 0.270211 0.261747 0.235748 0.219793 0.207258 0.200162 0.199019 0.20613 0.218343 0.223616 0.215889 0.219396 0.218235 0.212354 0.205783 0.195104 0.180455 0.171184 0.163229 0.159829 0.163891 0.171816 0.173628 0.169879 0.154677 0.143662 0.138653 0.132871 0.1272 0.123118 0.124518 0.13069 0.131167 0.127228 0.12609 0.124584 0.117942 0.11094 0.111314 0.111578 0.105491 0.102093 0.10092 0.0988077 0.0932077 0.0912007 0.089679 0.0873058 0.0859566 0.0855733 0.0887391 0.090929 0.0887241 0.0829488 0.0796423 0.0795704 0.0739451 0.0679114 0.0623951 0.0578419 0.0559071 0.0555648 0.0545824 0.0543033 0.0515715 0.0465331 0.0442546 0.041528 0.0381463 0.0363459 0.0341993 0.033165 0.0337777 0.0334562 0.0317274 0.0300714 0.0292339 0.0283343 0.0274712 0.0263311 0.0251428 0.0237993 0.0218447 0.0199523 0.0175063 0.0146868 0.0119672 0.009918 0.00875319 0.0088135 0.00975817 0.0112291 0.0124928 0.0145266 0.0187461
265.5625 0.00025 0.104451 0.168916 0.269531 0.265749 0.268693 0.270668 0.261749 0.234711 0.218989 0.207483 0.200869 0.199319 0.206043 0.2185 0.222893 0.215084 0.219112 0.217784 0.211425 0.205114 0.195188 0.180935 0.172023 0.164046 0.160225 0.16383 0.17111 0.172958 0.169872 0.154529 0.143254 0.138736 0.133194 0.127232 0.123389 0.124564 0.130536 0.130907 0.127058 0.125711 0.124437 0.118188 0.110965 0.111241 0.111741 0.105446 0.101831 0.101032 0.0992179 0.0936444 0.0913212 0.0898336 0.0874998 0.0860655 0.085547 0.0886179 0.090859 0.0888103 0.0830763 0.0797669 0.0796598 0.0738796 0.0679153 0.0625312 0.0579773 0.0559238 0.0555307 0.054594 0.0543957 0.0515608 0.0464209 0.0441674 0.0414167 0.0380736 0.036333 0.0341684 0.033122 0.0337812 0.0335406 0.0318215 0.0300718 0.0292686 0.0283929 0.0274848 0.0263317 0.0251973 0.0238618 0.0218947 0.0200144 0.0175745 0.0147513 0.012022 0.00994708 0.00876739 0.00882317 0.00976137 0.0112297 0.0124926 0.0145258 0.0187445
265.565 0.00025 0.104236 0.16837 0.268336 0.264143 0.267825 0.271047 0.261735 0.233657 0.218061 0.207589 0.201686 0.199797 0.206028 0.218624 0.222079 0.214205 0.218794 0.217265 0.210451 0.204482 0.195317 0.181448 0.172926 0.164906 0.160665 0.163796 0.170496 0.172222 0.169736 0.154392 0.142899 0.138829 0.133557 0.127312 0.123663 0.124595 0.130391 0.130644 0.126911 0.125348 0.124287 0.118427 0.111027 0.111157 0.111881 0.105437 0.10159 0.10113 0.0996181 0.0941055 0.091464 0.0899762 0.0876844 0.0861916 0.0855292 0.0884778 0.0907586 0.0888967 0.0832166 0.0799045 0.0797426 0.0738109 0.0679159 0.0626643 0.0581194 0.0559442 0.0554963 0.054606 0.0544772 0.0515438 0.0463254 0.0440855 0.0413053 0.0379989 0.0363211 0.0341419 0.0330809 0.0337839 0.0336181 0.0319196 0.0300754 0.0292962 0.0284512 0.0275042 0.02633 0.0252513 0.0239276 0.0219452 0.0200739 0.0176422 0.0148153 0.0120768 0.00997655 0.00878166 0.00883297 0.00976457 0.0112301 0.0124922 0.014525 0.0187428
265.5675 0.00025 0.104014 0.167814 0.267092 0.26258 0.266974 0.271322 0.261688 0.232621 0.217032 0.207588 0.202578 0.200432 0.206094 0.218705 0.221201 0.213257 0.218422 0.216686 0.209448 0.203884 0.195494 0.181999 0.173894 0.165806 0.161148 0.163793 0.169969 0.171441 0.169465 0.154267 0.142594 0.13893 0.133952 0.127456 0.123941 0.124613 0.130253 0.130379 0.126781 0.125008 0.124136 0.118653 0.111123 0.111059 0.111996 0.105457 0.101371 0.101218 0.100003 0.0945847 0.0916326 0.0901096 0.0878615 0.0863349 0.0855241 0.0883207 0.0906275 0.0889796 0.0833713 0.0800538 0.0798178 0.0737392 0.0679111 0.0627935 0.0582688 0.0559695 0.0554607 0.0546188 0.0545475 0.0515203 0.0462456 0.0440088 0.0411937 0.0379222 0.0363105 0.0341204 0.033042 0.033787 0.033689 0.0320206 0.0300835 0.0293169 0.0285079 0.0275291 0.0263264 0.0253043 0.023997 0.0219967 0.0201307 0.0177093 0.0148789 0.0121314 0.0100064 0.00879599 0.00884286 0.00976777 0.0112303 0.0124917 0.0145242 0.0187409
265.57 0.00025 0.10379 0.16726 0.265828 0.261111 0.266127 0.27147 0.261601 0.231622 0.215918 0.207498 0.203523 0.201209 0.206247 0.218738 0.22028 0.212247 0.217981 0.216055 0.208428 0.203315 0.195709 0.182583 0.17492 0.166738 0.161675 0.16382 0.16953 0.170636 0.169052 0.154148 0.142343 0.139042 0.134369 0.127669 0.124217 0.124619 0.130122 0.130118 0.126663 0.124695 0.12399 0.118866 0.111254 0.11095 0.11208 0.105505 0.101184 0.101297 0.100373 0.0950776 0.0918261 0.0902369 0.0880294 0.0864934 0.0855337 0.0881473 0.0904655 0.0890544 0.0835415 0.0802152 0.0798853 0.0736667 0.0679028 0.0629191 0.0584242 0.0559996 0.055423 0.0546325 0.0546061 0.0514901 0.0461816 0.0439368 0.0410824 0.037843 0.0363005 0.0341039 0.0330049 0.0337902 0.0337532 0.0321231 0.0300968 0.0293316 0.0285622 0.027559 0.0263222 0.0253553 0.0240697 0.0220493 0.0201849 0.0177755 0.0149422 0.0121858 0.0100367 0.00881041 0.00885286 0.009771 0.0112303 0.012491 0.0145234 0.0187389
265.5725 0.00025 0.103563 0.166711 0.264577 0.259763 0.265276 0.271461 0.261455 0.230695 0.214749 0.207347 0.204499 0.202106 0.206497 0.218715 0.219346 0.211195 0.217459 0.215384 0.207406 0.202772 0.195953 0.183201 0.175998 0.167698 0.162246 0.163871 0.169174 0.169823 0.168505 0.154031 0.142139 0.139162 0.134794 0.127949 0.124486 0.124614 0.129999 0.129863 0.126556 0.124409 0.123854 0.119062 0.11142 0.110831 0.112134 0.105576 0.101028 0.101368 0.100726 0.0955842 0.0920496 0.0903619 0.0881855 0.0866635 0.0855604 0.0879614 0.0902746 0.0891183 0.0837275 0.0803881 0.0799437 0.0735945 0.0678907 0.0630395 0.0585857 0.0560357 0.055384 0.0546476 0.0546528 0.0514533 0.046133 0.0438711 0.0409724 0.0377621 0.0362915 0.0340932 0.0329697 0.0337937 0.0338114 0.0322258 0.030116 0.0293413 0.0286131 0.0275934 0.026318 0.0254042 0.0241459 0.0221037 0.0202366 0.0178404 0.0150051 0.0122401 0.0100673 0.00882488 0.00886294 0.00977423 0.01123 0.0124901 0.0145225 0.0187368
265.575 0.00025 0.103327 0.166177 0.263381 0.258576 0.264417 0.271272 0.261232 0.229845 0.213547 0.20716 0.205473 0.203109 0.206853 0.218629 0.218422 0.210102 0.216834 0.214678 0.20639 0.202247 0.196202 0.183854 0.177117 0.168679 0.162864 0.163942 0.168895 0.169015 0.16784 0.153911 0.141977 0.139296 0.135227 0.128298 0.12475 0.124603 0.129881 0.12962 0.126451 0.124154 0.123728 0.119238 0.111617 0.110701 0.112156 0.105669 0.100907 0.101436 0.101058 0.0960989 0.0923015 0.090488 0.0883304 0.0868441 0.0856072 0.0877648 0.0900569 0.0891662 0.083929 0.0805724 0.0799927 0.0735223 0.0678741 0.0631542 0.0587515 0.0560771 0.0553431 0.0546633 0.0546873 0.0514098 0.046099 0.0438113 0.0408642 0.037679 0.0362826 0.0340883 0.0329367 0.0337978 0.033864 0.0323275 0.0301411 0.0293467 0.0286599 0.0276312 0.0263145 0.0254503 0.0242253 0.0221601 0.020286 0.0179039 0.0150677 0.0122941 0.0100984 0.00883943 0.00887313 0.00977748 0.0112296 0.012489 0.0145217 0.0187345
265.5775 0.00025 0.103089 0.165658 0.262269 0.257573 0.26355 0.270899 0.260925 0.229091 0.212344 0.206961 0.206421 0.204186 0.207312 0.218471 0.217527 0.208982 0.216098 0.21395 0.205395 0.201745 0.196439 0.184538 0.178264 0.169677 0.163532 0.164028 0.168691 0.168219 0.167067 0.15378 0.141851 0.139449 0.135661 0.12871 0.125008 0.12459 0.12977 0.129394 0.126348 0.123932 0.12362 0.119402 0.111844 0.110564 0.112141 0.105778 0.100824 0.101502 0.101368 0.0966189 0.092577 0.0906166 0.0884634 0.0870307 0.0856732 0.0875591 0.0898136 0.0891941 0.0841442 0.0807675 0.080032 0.07345 0.0678542 0.0632633 0.0589208 0.0561254 0.0553021 0.0546804 0.0547101 0.0513599 0.0460774 0.0437576 0.0407576 0.0375939 0.0362736 0.0340895 0.032906 0.0338028 0.0339114 0.0324275 0.0301723 0.029349 0.0287021 0.0276716 0.0263127 0.0254936 0.0243079 0.0222192 0.0203335 0.0179658 0.01513 0.0123479 0.0101298 0.00885404 0.00888336 0.00978075 0.0112289 0.0124877 0.0145208 0.0187321