265.5025 0.00025 0.00583548 0.0310337 0.0718817 0.115765 0.131991 0.144392 0.155434 0.16396 0.166104 0.166769 0.161842 0.155271 0.152252 0.155928 0.158962 0.162024 0.16136 0.161655 0.160931 0.161673 0.164046 0.164205 0.164347 0.161279 0.156087 0.151021 0.146299 0.1404 0.133248 0.128418 0.122494 0.117708 0.116616 0.118002 0.118341 0.116692 0.115056 0.113575 0.11274 0.113166 0.114713 0.115013 0.113378 0.10926 0.106001 0.0998289 0.0935275 0.0873847 0.0819555 0.0773925 0.0740538 0.073154 0.0712658 0.0697868 0.0691848 0.0686072 0.0685951 0.0674965 0.0678981 0.0668698 0.0653221 0.0644131 0.0638693 0.0636267 0.0625281 0.0621544 0.0608164 0.0599031 0.0576511 0.0551141 0.0514215 0.0490355 0.046349 0.0439667 0.0408195 0.0381488 0.0357886 0.0333077 0.0310942 0.0296902 0.0283668 0.0270656 0.0252515 0.0234199 0.0216453 0.0195378 0.0171518 0.0153181 0.0136906 0.0121906 0.010944 0.00975233 0.00865175 0.00769386 0.00674514 0.00578735 0.00468561 0.00333165 0.00176557 0.000320514
265.505 0.00025 0.00581424 0.0309093 0.0716916 0.115568 0.132279 0.144593 0.155198 0.164005 0.165891 0.166593 0.161705 0.155265 0.152417 0.15624 0.15936 0.162344 0.161786 0.162004 0.161195 0.161752 0.16422 0.164415 0.16483 0.161768 0.156438 0.151249 0.146145 0.140366 0.132919 0.128404 0.122436 0.11769 0.116589 0.117839 0.118099 0.116506 0.114823 0.113363 0.112565 0.113036 0.114654 0.114892 0.113477 0.109393 0.106326 0.100166 0.0937183 0.0875703 0.0820524 0.07746 0.0740362 0.0731071 0.0713603 0.069804 0.0692012 0.068589 0.0684958 0.0674166 0.0678517 0.0669178 0.0653791 0.0644228 0.0638243 0.0635604 0.0624709 0.0621054 0.0607674 0.0598191 0.0575684 0.0550145 0.0513868 0.049025 0.0463653 0.0439889 0.0408335 0.0381551 0.0357826 0.0333176 0.0310793 0.0296504 0.0283482 0.0270688 0.0252878 0.0234607 0.0217071 0.019621 0.0172188 0.0153632 0.0137363 0.0122232 0.0109551 0.00975408 0.00864768 0.0076869 0.00673774 0.00577925 0.00468092 0.00332939 0.00176491 0.000320925
265.5075 0.00025 0.00579325 0.0307665 0.0715056 0.115366 0.132566 0.144877 0.154974 0.163937 0.16569 0.16631 0.161546 0.15529 0.152592 0.156528 0.159778 0.162696 0.162248 0.162359 0.16147 0.161864 0.164421 0.164594 0.165256 0.162242 0.156777 0.15149 0.145956 0.140303 0.13258 0.12838 0.122375 0.117706 0.116593 0.11767 0.117835 0.116306 0.114591 0.113151 0.112407 0.112905 0.114607 0.114792 0.113561 0.109523 0.106631 0.100511 0.0939117 0.0877524 0.082144 0.0775259 0.0740222 0.0730481 0.0714565 0.0698352 0.0692189 0.0685801 0.0684078 0.0673367 0.0677962 0.0669518 0.0654327 0.0644318 0.0637806 0.0634961 0.0624104 0.0620574 0.0607217 0.0597309 0.0574893 0.0549153 0.0513516 0.0490163 0.0463832 0.0440117 0.0408492 0.0381637 0.035778 0.0333264 0.0310707 0.0296111 0.0283262 0.0270687 0.0253234 0.023501 0.021767 0.0197038 0.0172886 0.0154084 0.0137814 0.0122572 0.0109671 0.00975634 0.00864403 0.00768008 0.00673037 0.00577115 0.00467611 0.00332711 0.00176418 0.000321311
265.51 0.00025 0.00577238 0.030607 0.0713263 0.115178 0.132862 0.14523 0.154784 0.163742 0.165505 0.165916 0.161376 0.155328 0.152773 0.156794 0.160192 0.163077 0.162725 0.162708 0.161752 0.162011 0.164663 0.164751 0.165632 0.162698 0.157102 0.151743 0.145732 0.140211 0.132243 0.128341 0.12232 0.117754 0.116619 0.1175 0.117556 0.116089 0.114362 0.112944 0.112266 0.112773 0.11457 0.114712 0.113636 0.109656 0.106916 0.100858 0.0941062 0.0879277 0.0822295 0.0775896 0.0740124 0.0729765 0.0715524 0.069881 0.0692382 0.068576 0.0683325 0.0672569 0.067734 0.0669709 0.0654812 0.0644393 0.0637377 0.0634358 0.0623483 0.0620089 0.0606792 0.0596386 0.0574144 0.0548171 0.0513153 0.0490085 0.0464027 0.0440352 0.0408667 0.0381745 0.035775 0.0333333 0.0310671 0.0295733 0.0283009 0.0270655 0.0253582 0.0235417 0.0218248 0.0197857 0.017361 0.0154541 0.0138255 0.0122923 0.0109802 0.00975912 0.00864079 0.00767339 0.00672304 0.00576305 0.00467122 0.00332484 0.0017634 0.000321678
265.5125 0.00025 0.00575239 0.0304337 0.071142 0.114988 0.133166 0.145627 0.154627 0.163421 0.165331 0.165442 0.161206 0.155361 0.152949 0.157047 0.160598 0.163498 0.163212 0.163046 0.162037 0.162195 0.164948 0.164884 0.165968 0.163122 0.157403 0.152001 0.145477 0.140099 0.131916 0.128283 0.122281 0.117834 0.116672 0.117333 0.117262 0.115843 0.114133 0.112739 0.11214 0.112641 0.114542 0.114653 0.113697 0.109797 0.107183 0.101206 0.0943078 0.0880978 0.0823079 0.0776505 0.0740064 0.072895 0.0716458 0.0699437 0.0692594 0.0685781 0.0682741 0.067179 0.0676686 0.0669765 0.0655244 0.0644467 0.0636958 0.0633788 0.0622855 0.0619592 0.0606402 0.0595432 0.0573434 0.05472 0.0512778 0.0490015 0.046424 0.0440594 0.0408853 0.038187 0.0357743 0.0333384 0.0310675 0.0295384 0.0282728 0.0270592 0.0253914 0.0235823 0.0218806 0.0198666 0.0174357 0.0155007 0.0138687 0.0123286 0.0109944 0.00976247 0.00863804 0.00766688 0.00671576 0.00575496 0.00466623 0.00332254 0.00176252 0.000322014
265.515 0.00025 0.00573528 0.0302505 0.0709482 0.114815 0.133463 0.146038 0.154496 0.162981 0.165167 0.164902 0.161025 0.155375 0.153116 0.157284 0.160978 0.16396 0.1637 0.163364 0.162317 0.162425 0.165272 0.164994 0.166262 0.163502 0.157685 0.152268 0.145198 0.139967 0.131601 0.128208 0.122259 0.117936 0.116748 0.117173 0.116957 0.11557 0.113904 0.11254 0.112027 0.112508 0.114527 0.114616 0.11375 0.109951 0.107431 0.101549 0.0945165 0.0882626 0.0823799 0.0777066 0.0740057 0.072804 0.0717317 0.0700202 0.0692817 0.0685821 0.06823 0.0671011 0.067601 0.066969 0.0655585 0.0644542 0.063655 0.0633261 0.0622239 0.0619067 0.060604 0.0594446 0.0572759 0.0546245 0.0512392 0.048995 0.0464468 0.0440846 0.0409056 0.0382013 0.0357762 0.0333421 0.0310704 0.0295071 0.0282416 0.0270498 0.025423 0.0236234 0.0219346 0.0199465 0.017513 0.0155487 0.0139109 0.0123658 0.0110098 0.0097664 0.00863578 0.00766056 0.00670851 0.00574689 0.00466114 0.00332021 0.00176156 0.000322322
265.5175 0.00025 0.00572026 0.030066 0.0707389 0.114662 0.133738 0.146456 0.1544 0.162458 0.164994 0.164325 0.160838 0.155373 0.153266 0.157515 0.161322 0.16446 0.164187 0.16366 0.162589 0.162708 0.165639 0.165087 0.166529 0.163824 0.157953 0.152533 0.144901 0.139815 0.131304 0.128121 0.122257 0.118056 0.116843 0.117016 0.116642 0.11527 0.113678 0.112348 0.111928 0.112379 0.114517 0.114596 0.113792 0.110116 0.107666 0.101876 0.0947301 0.088422 0.0824474 0.077758 0.0740083 0.0727045 0.0718108 0.0701109 0.0693069 0.0685887 0.0682034 0.0670251 0.06753 0.0669486 0.0655826 0.0644617 0.0636143 0.0632766 0.0621649 0.0618511 0.06057 0.0593437 0.0572111 0.054532 0.0512002 0.0489888 0.0464707 0.0441113 0.0409275 0.038217 0.035781 0.0333454 0.0310747 0.0294806 0.0282075 0.0270366 0.0254529 0.0236651 0.0219868 0.0200249 0.0175921 0.0155983 0.0139522 0.0124037 0.0110263 0.00977094 0.00863398 0.00765444 0.00670129 0.0057388 0.00465595 0.00331786 0.00176055 0.000322605
265.52 0.00025 0.00570614 0.0298792 0.0705062 0.114523 0.133985 0.146885 0.154349 0.161884 0.164803 0.16372 0.160629 0.155352 0.153389 0.157742 0.161617 0.164985 0.164665 0.163934 0.162844 0.163045 0.166051 0.165177 0.166769 0.164088 0.15822 0.152791 0.144598 0.139648 0.131033 0.12802 0.122278 0.118196 0.116957 0.11687 0.116318 0.114944 0.113445 0.112159 0.111843 0.112254 0.114517 0.114594 0.113827 0.110286 0.107892 0.102188 0.0949532 0.0885782 0.0825117 0.0778043 0.0740173 0.0725991 0.071882 0.0702136 0.0693351 0.0685968 0.0681912 0.066953 0.0674572 0.0669175 0.0655938 0.0644678 0.0635747 0.0632301 0.0621092 0.0617933 0.0605378 0.0592416 0.0571487 0.0544423 0.0511614 0.0489816 0.0464951 0.044139 0.0409508 0.0382339 0.0357881 0.0333483 0.0310791 0.0294595 0.0281713 0.0270195 0.0254805 0.0237074 0.0220372 0.0201017 0.0176728 0.0156499 0.0139925 0.0124422 0.0110439 0.00977604 0.0086327 0.00764854 0.00669413 0.00573069 0.00465066 0.00331552 0.0017595 0.000322861
265.5225 0.00025 0.00569352 0.0296955 0.0702466 0.114408 0.13419 0.147314 0.154355 0.161289 0.164584 0.163098 0.160394 0.155319 0.153477 0.157976 0.161856 0.165525 0.165122 0.164182 0.163077 0.163437 0.166499 0.165264 0.166985 0.164293 0.158484 0.153032 0.1443 0.139461 0.130785 0.127912 0.122323 0.11835 0.117084 0.11673 0.115991 0.114599 0.113205 0.111973 0.111773 0.112133 0.114526 0.114604 0.113861 0.110457 0.108106 0.10248 0.0951802 0.0887281 0.0825703 0.0778416 0.0740323 0.0724918 0.0719427 0.0703253 0.0693662 0.0686073 0.0681923 0.0668861 0.0673811 0.0668792 0.0655912 0.0644731 0.0635365 0.0631858 0.0620587 0.0617342 0.060507 0.0591401 0.0570879 0.054356 0.0511223 0.0489727 0.0465194 0.0441676 0.0409756 0.0382517 0.0357976 0.0333524 0.0310827 0.0294443 0.028135 0.0269991 0.0255055 0.0237505 0.0220862 0.0201764 0.0177548 0.0157037 0.0140321 0.0124811 0.0110627 0.00978171 0.00863186 0.00764287 0.00668702 0.00572262 0.00464533 0.00331321 0.00175841 0.000323093
265.525 0.00025 0.00568203 0.0295126 0.0699735 0.114311 0.134326 0.147742 0.154415 0.160688 0.164346 0.162473 0.160142 0.15528 0.153518 0.158216 0.162039 0.16607 0.165557 0.164407 0.163294 0.163879 0.166974 0.165365 0.167169 0.164445 0.158748 0.153245 0.144029 0.139257 0.130566 0.127806 0.122389 0.118512 0.117221 0.116598 0.115665 0.114246 0.112959 0.111784 0.111717 0.112017 0.114548 0.114622 0.113898 0.110628 0.108313 0.102755 0.0954144 0.088875 0.0826292 0.077869 0.0740511 0.0723842 0.071991 0.0704409 0.0694013 0.0686199 0.0682042 0.0668271 0.0673016 0.0668364 0.065575 0.0644783 0.0635021 0.0631426 0.0620119 0.0616738 0.0604755 0.0590396 0.0570278 0.0542739 0.051085 0.0489626 0.0465436 0.044198 0.0410015 0.0382706 0.0358089 0.0333581 0.0310847 0.0294344 0.0280988 0.0269748 0.0255269 0.0237942 0.0221341 0.0202495 0.0178378 0.0157598 0.014071 0.0125203 0.0110825 0.00978796 0.0086315 0.00763743 0.00667994 0.00571456 0.00463994 0.0033109 0.00175728 0.000323298
265.5275 0.00025 0.00567036 0.0293265 0.0696809 0.11426 0.134385 0.148177 0.154542 0.160101 0.164083 0.161845 0.159887 0.155237 0.153515 0.158467 0.162171 0.166608 0.165974 0.164609 0.163496 0.164368 0.167458 0.165493 0.167304 0.164559 0.159012 0.153422 0.143797 0.139033 0.130379 0.127701 0.122475 0.118683 0.117365 0.116475 0.115337 0.113891 0.112705 0.111591 0.111679 0.111907 0.114581 0.114637 0.113945 0.1108 0.108515 0.103011 0.0956536 0.0890139 0.082687 0.0778872 0.0740758 0.0722795 0.0720273 0.0705596 0.0694404 0.0686375 0.0682252 0.0667791 0.06722 0.06679 0.0655438 0.0644806 0.0634713 0.0631008 0.06197 0.0616137 0.0604428 0.0589419 0.0569681 0.0541953 0.0510501 0.0489505 0.0465678 0.0442297 0.041029 0.0382911 0.0358219 0.0333662 0.0310848 0.0294294 0.0280642 0.0269476 0.0255447 0.0238383 0.022181 0.0203205 0.0179214 0.0158182 0.0141095 0.0125596 0.0111034 0.00979488 0.00863165 0.00763224 0.00667293 0.00570655 0.0046345 0.00330858 0.00175611 0.000323481
265.53 0.00025 0.00565727 0.0291381 0.0693765 0.114243 0.134369 0.148614 0.154725 0.15956 0.163813 0.161215 0.159642 0.155197 0.153475 0.158718 0.162251 0.167121 0.166374 0.164784 0.163694 0.164894 0.167946 0.165668 0.167383 0.164647 0.159277 0.153562 0.143614 0.138788 0.130227 0.127607 0.122586 0.118863 0.117509 0.116358 0.11501 0.113537 0.112442 0.111388 0.111656 0.111809 0.114626 0.114648 0.114008 0.110969 0.10871 0.103248 0.0958946 0.0891479 0.0827491 0.0778986 0.0741058 0.0721813 0.0720513 0.0706784 0.0694829 0.068661 0.0682512 0.0667448 0.0671349 0.0667419 0.0654985 0.0644797 0.0634441 0.06306 0.0619321 0.0615548 0.0604077 0.0588477 0.0569073 0.0541204 0.0510179 0.0489364 0.0465911 0.044263 0.0410587 0.0383131 0.0358359 0.0333774 0.0310833 0.0294283 0.0280315 0.026917 0.0255577 0.0238823 0.0222275 0.0203897 0.0180054 0.0158791 0.0141476 0.0125989 0.0111253 0.00980249 0.00863234 0.00762728 0.00666596 0.00569857 0.00462897 0.00330625 0.0017549 0.000323642
265.5325 0.00025 0.00564268 0.0289474 0.0690668 0.114246 0.134271 0.149055 0.154945 0.159082 0.163531 0.160577 0.159425 0.155163 0.153411 0.15897 0.162282 0.167589 0.166772 0.164927 0.163903 0.165451 0.168421 0.165891 0.167393 0.164717 0.159541 0.153669 0.14349 0.138522 0.130108 0.127526 0.122719 0.119055 0.117651 0.116248 0.114679 0.11319 0.112178 0.111179 0.111647 0.111718 0.114676 0.11465 0.114086 0.111133 0.108896 0.103469 0.0961349 0.0892745 0.0828147 0.0779004 0.074136 0.0720924 0.0720629 0.0707945 0.0695287 0.0686916 0.0682774 0.0667244 0.0670479 0.0666927 0.0654396 0.0644728 0.0634223 0.0630201 0.0618973 0.0614994 0.0603698 0.0587585 0.056846 0.0540497 0.0509895 0.0489202 0.0466138 0.0442977 0.0410902 0.0383368 0.0358504 0.033392 0.0310809 0.0294299 0.0280017 0.0268842 0.0255659 0.023926 0.0222739 0.0204569 0.0180893 0.0159425 0.0141857 0.0126381 0.0111482 0.00981084 0.00863362 0.00762265 0.00665912 0.00569062 0.00462334 0.00330392 0.00175366 0.000323779
265.535 0.00025 0.0056272 0.0287533 0.0687694 0.114246 0.134117 0.149483 0.1552 0.158699 0.163249 0.159947 0.159235 0.155126 0.153326 0.159204 0.16228 0.168007 0.167186 0.165032 0.164132 0.16602 0.168878 0.166163 0.167332 0.164786 0.159802 0.153747 0.143426 0.138245 0.130024 0.12746 0.122871 0.119254 0.117782 0.116145 0.114346 0.112851 0.111913 0.11096 0.111651 0.111641 0.114736 0.114643 0.114184 0.111297 0.109074 0.103674 0.0963781 0.0893938 0.0828842 0.0778957 0.0741669 0.0720144 0.0720631 0.0709052 0.0695762 0.0687317 0.0683035 0.0667202 0.0669596 0.066643 0.0653702 0.0644593 0.0634059 0.0629812 0.0618654 0.061449 0.0603297 0.0586752 0.0567838 0.053983 0.0509656 0.048901 0.0466352 0.0443341 0.0411232 0.0383628 0.035865 0.0334097 0.0310779 0.029433 0.0279753 0.0268498 0.0255692 0.0239689 0.02232 0.0205218 0.018173 0.0160084 0.0142241 0.0126771 0.011172 0.00981991 0.00863547 0.00761831 0.00665236 0.00568268 0.00461763 0.00330162 0.00175241 0.000323893
265.5375 0.00025 0.00561009 0.0285564 0.0685097 0.11423 0.133942 0.1499 0.155477 0.158403 0.16296 0.159333 0.159077 0.155095 0.153242 0.159415 0.162259 0.168362 0.167625 0.165101 0.164391 0.166586 0.169304 0.166472 0.167208 0.164858 0.160047 0.153798 0.143418 0.137964 0.129973 0.12741 0.123045 0.119467 0.117903 0.116052 0.114006 0.11252 0.11165 0.110732 0.111664 0.111581 0.114799 0.114627 0.114302 0.111457 0.109242 0.103871 0.0966239 0.0895074 0.0829582 0.0778861 0.0741946 0.0719498 0.072053 0.071008 0.0696241 0.0687823 0.0683278 0.066732 0.0668715 0.0665919 0.0652925 0.0644369 0.0633929 0.0629441 0.0618358 0.0614035 0.060287 0.0585969 0.0567185 0.0539198 0.0509465 0.0488798 0.0466555 0.0443714 0.0411577 0.0383909 0.0358794 0.0334304 0.0310749 0.0294364 0.0279527 0.0268146 0.0255671 0.0240099 0.0223663 0.020585 0.018256 0.0160765 0.0142629 0.0127158 0.0111967 0.00982971 0.00863781 0.00761425 0.00664573 0.0056748 0.00461186 0.00329933 0.00175115 0.000323986
265.54 0.00025 0.00559131 0.0283614 0.0683039 0.114172 0.133786 0.150305 0.155753 0.158201 0.162652 0.158743 0.158955 0.155067 0.153173 0.15958 0.162239 0.168642 0.168086 0.165141 0.164691 0.167151 0.1697 0.166805 0.167036 0.164934 0.160275 0.153832 0.143463 0.137697 0.129949 0.127375 0.123238 0.119696 0.118009 0.115966 0.113659 0.112202 0.111395 0.110496 0.111679 0.11154 0.114864 0.114599 0.114434 0.111615 0.109399 0.104061 0.0968699 0.0896134 0.0830376 0.0778738 0.0742188 0.0718984 0.0720333 0.0711016 0.0696724 0.0688433 0.0683497 0.0667592 0.0667843 0.0665393 0.0652097 0.0644049 0.0633837 0.0629101 0.0618076 0.0613642 0.0602431 0.0585248 0.056652 0.0538603 0.0509329 0.0488564 0.046675 0.0444096 0.0411935 0.0384217 0.0358935 0.0334537 0.0310731 0.0294393 0.0279343 0.0267792 0.0255602 0.0240485 0.0224129 0.0206466 0.0183381 0.0161469 0.0143025 0.0127544 0.0112223 0.00984021 0.00864065 0.00761046 0.00663917 0.00566695 0.00460601 0.00329702 0.00174986 0.000324053
265.5425 0.00025 0.00557169 0.028177 0.0681685 0.114065 0.133683 0.150677 0.156013 0.158097 0.162317 0.158202 0.158872 0.155055 0.153143 0.159684 0.16224 0.168851 0.168565 0.16516 0.165025 0.167703 0.170055 0.167142 0.166836 0.165011 0.160483 0.153857 0.143555 0.137456 0.129955 0.127362 0.123455 0.119943 0.1181 0.115896 0.113306 0.1119 0.111144 0.110253 0.111691 0.111518 0.114927 0.114558 0.114576 0.111771 0.109545 0.104246 0.0971162 0.0897137 0.0831205 0.0778601 0.0742366 0.0718602 0.0720079 0.0711851 0.0697201 0.0689154 0.0683715 0.0668017 0.0667021 0.0664849 0.0651244 0.064362 0.0633771 0.0628798 0.06178 0.0613311 0.060199 0.0584577 0.0565836 0.0538051 0.0509255 0.0488313 0.0466931 0.0444485 0.0412305 0.0384552 0.0359074 0.0334784 0.031073 0.0294413 0.0279206 0.0267443 0.0255487 0.0240842 0.0224598 0.0207063 0.0184187 0.0162192 0.0143431 0.0127927 0.0112486 0.00985148 0.00864406 0.00760698 0.00663272 0.00565919 0.00460014 0.00329473 0.00174855 0.000324091
265.545 0.00025 0.00555217 0.0280078 0.0680958 0.113909 0.133654 0.151014 0.156245 0.158086 0.161955 0.157733 0.158822 0.155054 0.153158 0.159712 0.162268 0.168993 0.169051 0.165178 0.165384 0.168236 0.170358 0.167474 0.166631 0.165076 0.160659 0.15388 0.143682 0.137255 0.129985 0.127365 0.123691 0.120206 0.118177 0.115838 0.112941 0.111614 0.110901 0.110006 0.111692 0.111515 0.114991 0.114511 0.114724 0.111925 0.109679 0.104426 0.097364 0.0898097 0.0832047 0.0778482 0.0742513 0.0718335 0.0719774 0.0712552 0.0697649 0.0689959 0.0683932 0.0668538 0.066625 0.0664278 0.0650389 0.0643091 0.0633712 0.062854 0.0617535 0.0613042 0.0601561 0.058396 0.0565144 0.0537544 0.0509237 0.0488049 0.0467096 0.044487 0.0412683 0.0384912 0.035921 0.0335043 0.031076 0.0294419 0.0279105 0.0267097 0.025533 0.0241162 0.0225074 0.0207647 0.0184976 0.0162932 0.0143848 0.0128308 0.0112756 0.00986352 0.00864802 0.00760381 0.00662641 0.00565148 0.00459417 0.00329244 0.00174723 0.000324104
265.5475 0.00025 0.00553457 0.027865 0.068072 0.113751 0.133718 0.151331 0.156447 0.15815 0.161562 0.157339 0.158805 0.155062 0.153225 0.159653 0.16234 0.169083 0.169522 0.165217 0.16576 0.168756 0.170595 0.167783 0.166442 0.165121 0.160803 0.153904 0.143832 0.137104 0.13004 0.127388 0.123945 0.12049 0.118241 0.115797 0.112567 0.111342 0.110665 0.10976 0.11168 0.111532 0.115056 0.114459 0.114875 0.112078 0.109801 0.1046 0.0976124 0.0899049 0.0832889 0.0778385 0.0742623 0.0718164 0.0719422 0.0713142 0.0698096 0.0690847 0.0684177 0.0669153 0.0665583 0.0663672 0.0649539 0.0642449 0.0633632 0.0628326 0.0617275 0.0612819 0.0601158 0.058339 0.0564439 0.0537069 0.0509275 0.0487781 0.0467251 0.0445253 0.041307 0.03853 0.035935 0.0335309 0.0310826 0.029441 0.0279047 0.0266766 0.0255142 0.0241441 0.0225557 0.0208217 0.0185748 0.0163685 0.0144279 0.0128685 0.0113033 0.0098763 0.00865252 0.00760091 0.00662014 0.00564379 0.00458812 0.00329018 0.00174591 0.0003241
265.55 0.00025 0.00551951 0.0277509 0.0680774 0.113592 0.133858 0.151636 0.156618 0.158286 0.161142 0.157033 0.158812 0.155085 0.153352 0.159515 0.162464 0.169135 0.169955 0.165295 0.166137 0.169259 0.170765 0.16806 0.166289 0.165146 0.160907 0.15394 0.143999 0.137016 0.130124 0.127434 0.124212 0.12079 0.118294 0.115768 0.112183 0.111084 0.110433 0.10952 0.111653 0.111565 0.115118 0.114403 0.115022 0.11223 0.109916 0.104767 0.0978613 0.0900048 0.0833745 0.0778339 0.0742699 0.0718055 0.0719028 0.0713593 0.0698511 0.069178 0.0684462 0.0669815 0.0665021 0.0663022 0.0648717 0.0641712 0.0633526 0.0628174 0.061702 0.0612644 0.0600803 0.0582867 0.0563736 0.0536637 0.0509374 0.0487517 0.0467396 0.0445631 0.0413463 0.038571 0.03595 0.0335573 0.0310932 0.0294384 0.0279023 0.0266449 0.025493 0.0241671 0.0226043 0.0208778 0.0186503 0.0164448 0.0144727 0.0129059 0.0113317 0.00988988 0.00865758 0.00759837 0.00661402 0.00563619 0.00458204 0.00328795 0.00174461 0.000324074
265.5525 0.00025 0.00550851 0.0276705 0.0681077 0.113454 0.134076 0.151931 0.156755 0.158477 0.160706 0.156825 0.158838 0.155126 0.153543 0.15931 0.162638 0.169179 0.170331 0.165434 0.166497 0.169731 0.170859 0.168301 0.166178 0.165145 0.160966 0.153979 0.144172 0.136984 0.130231 0.127499 0.124492 0.121111 0.118339 0.115751 0.111792 0.110845 0.110206 0.109288 0.111611 0.111611 0.115179 0.114353 0.11516 0.112377 0.110026 0.104927 0.0981079 0.0901098 0.0834597 0.0778344 0.0742777 0.0718011 0.0718637 0.0713934 0.0698908 0.0692733 0.0684812 0.0670517 0.0664589 0.066234 0.0647928 0.0640883 0.0633384 0.0628087 0.061677 0.0612496 0.0600501 0.0582389 0.0563043 0.0536244 0.0509527 0.0487268 0.0467531 0.0445995 0.0413859 0.0386143 0.0359662 0.0335829 0.0311078 0.0294343 0.0279032 0.026615 0.0254703 0.0241845 0.0226524 0.0209329 0.018724 0.0165218 0.0145191 0.012943 0.0113605 0.00990419 0.0086632 0.0075962 0.00660808 0.00562868 0.00457592 0.00328569 0.00174328 0.000324027
265.555 0.00025 0.00550052 0.0276213 0.0681601 0.113351 0.134362 0.152236 0.15686 0.158716 0.160267 0.156709 0.158868 0.155187 0.153789 0.15905 0.162851 0.169234 0.170637 0.165647 0.166837 0.17017 0.170887 0.168497 0.166106 0.165112 0.160981 0.154022 0.144341 0.137009 0.130363 0.127588 0.124782 0.121444 0.118378 0.115739 0.111399 0.110621 0.109978 0.109064 0.11156 0.111669 0.115238 0.11431 0.115285 0.112518 0.110135 0.105077 0.0983514 0.0902242 0.0835427 0.077842 0.0742864 0.0717996 0.0718244 0.0714165 0.0699287 0.0693686 0.0685243 0.0671217 0.0664297 0.0661634 0.0647182 0.0639989 0.0633197 0.0628058 0.0616535 0.0612383 0.0600263 0.0581953 0.0562359 0.0535887 0.0509724 0.0487037 0.0467661 0.0446344 0.0414261 0.0386592 0.0359839 0.0336067 0.0311269 0.0294293 0.0279064 0.026587 0.0254471 0.0241966 0.0227001 0.0209872 0.0187961 0.0165994 0.0145674 0.01298 0.0113899 0.0099193 0.00866939 0.00759441 0.00660228 0.00562124 0.00456974 0.00328345 0.00174195 0.000323954
265.5575 0.00025 0.00549758 0.0276072 0.0682216 0.113294 0.134704 0.152549 0.156945 0.159001 0.159835 0.156679 0.158906 0.155276 0.154075 0.158754 0.163092 0.169313 0.170853 0.165942 0.167147 0.170558 0.170842 0.168649 0.166076 0.165056 0.160952 0.154073 0.144509 0.13709 0.130524 0.127702 0.125078 0.121796 0.118419 0.11573 0.11101 0.110412 0.109746 0.108856 0.111501 0.111737 0.115298 0.114279 0.115391 0.112648 0.110247 0.105221 0.0985892 0.0903501 0.0836218 0.0778559 0.0742972 0.0718 0.0717851 0.07143 0.0699652 0.0694627 0.0685781 0.0671913 0.0664155 0.0660915 0.064647 0.0639039 0.0632945 0.0628088 0.0616323 0.0612278 0.0600094 0.0581552 0.0561694 0.0535574 0.0509965 0.0486831 0.0467783 0.0446671 0.0414666 0.0387056 0.0360038 0.0336282 0.0311498 0.0294237 0.0279111 0.0265609 0.0254239 0.0242033 0.0227466 0.0210405 0.0188661 0.0166771 0.0146174 0.0130167 0.0114199 0.00993517 0.0086761 0.00759295 0.0065966 0.00561389 0.00456351 0.00328122 0.00174064 0.000323862
265.56 0.00025 0.00549841 0.0276238 0.0682918 0.113297 0.135084 0.152863 0.157011 0.159322 0.159428 0.156732 0.15895 0.155395 0.154395 0.158446 0.163353 0.169422 0.170981 0.166309 0.167431 0.170899 0.17074 0.168745 0.166074 0.164978 0.160879 0.154125 0.14467 0.137221 0.130707 0.127838 0.12538 0.122165 0.118463 0.115719 0.110631 0.11022 0.10951 0.108661 0.111436 0.11181 0.115352 0.11426 0.115479 0.112771 0.110368 0.105358 0.0988179 0.0904893 0.0836999 0.0778751 0.074309 0.0718022 0.0717459 0.071433 0.0699987 0.0695519 0.0686425 0.0672602 0.0664158 0.0660201 0.0645803 0.0638045 0.0632634 0.0628174 0.0616132 0.0612182 0.0600002 0.0581185 0.0561057 0.0535305 0.0510239 0.0486658 0.0467901 0.0446977 0.0415077 0.0387537 0.0360271 0.033648 0.0311766 0.029418 0.0279171 0.0265366 0.0254014 0.0242047 0.0227913 0.0210936 0.0189343 0.0167544 0.0146691 0.0130533 0.0114502 0.0099518 0.00868335 0.00759181 0.00659104 0.00560662 0.00455724 0.00327903 0.00173934 0.000323749
265.5625 0.00025 0.00549948 0.0276651 0.0683683 0.113359 0.135502 0.153185 0.157064 0.159653 0.159055 0.156853 0.158995 0.155548 0.154734 0.158143 0.163614 0.169558 0.171031 0.166737 0.167684 0.171181 0.170584 0.168787 0.166097 0.164882 0.160772 0.154176 0.144819 0.137398 0.13092 0.128003 0.125683 0.122544 0.118517 0.115703 0.110267 0.110044 0.109272 0.10848 0.111372 0.111887 0.115404 0.114259 0.115542 0.11288 0.110495 0.105486 0.0990384 0.090643 0.0837762 0.0779013 0.0743213 0.0718057 0.0717036 0.071424 0.0700307 0.0696386 0.0687169 0.0673277 0.0664286 0.0659491 0.0645162 0.0637032 0.0632264 0.06283 0.0615961 0.0612075 0.0599989 0.0580855 0.0560462 0.0535087 0.0510552 0.0486531 0.0468018 0.0447265 0.0415493 0.0388024 0.0360529 0.0336652 0.0312064 0.0294125 0.027923 0.0265143 0.0253801 0.0242012 0.0228335 0.0211466 0.0190006 0.0168312 0.0147227 0.01309 0.0114809 0.00996912 0.00869111 0.00759101 0.00658565 0.00559947 0.00455093 0.00327686 0.00173807 0.000323624
265.565 0.00025 0.00549961 0.0277178 0.0684497 0.113483 0.135946 0.153504 0.157116 0.159979 0.158735 0.157032 0.159037 0.155734 0.155086 0.157881 0.163868 0.169705 0.171019 0.167199 0.167902 0.1714 0.170381 0.16878 0.166136 0.164768 0.160624 0.154222 0.144961 0.137622 0.131162 0.128192 0.12599 0.122935 0.118585 0.115678 0.109925 0.109886 0.10903 0.10831 0.111309 0.111966 0.115446 0.114277 0.115588 0.112974 0.110627 0.105608 0.0992496 0.090811 0.083851 0.0779375 0.0743348 0.0718109 0.0716609 0.0714058 0.0700623 0.0697201 0.0688002 0.0673957 0.0664536 0.0658812 0.0644542 0.0636006 0.0631832 0.0628457 0.0615826 0.0611968 0.0600062 0.058056 0.0559899 0.0534906 0.0510882 0.0486451 0.0468137 0.044753 0.0415912 0.0388515 0.036082 0.03368 0.0312385 0.0294083 0.0279294 0.0264941 0.0253601 0.0241937 0.0228728 0.0212001 0.019065 0.0169074 0.0147782 0.013127 0.011512 0.0099872 0.00869943 0.00759062 0.00658045 0.00559244 0.0045446 0.00327471 0.00173683 0.000323483
265.5675 0.00025 0.00549766 0.0277727 0.0685416 0.113656 0.136395 0.153836 0.157161 0.160268 0.158469 0.157245 0.159079 0.15595 0.155439 0.157669 0.164116 0.169848 0.170971 0.167673 0.168074 0.171567 0.170135 0.168725 0.166174 0.164638 0.160433 0.15427 0.145096 0.137885 0.131433 0.12841 0.126298 0.123328 0.118663 0.115639 0.10961 0.109744 0.108788 0.108153 0.111253 0.112047 0.115481 0.114318 0.115612 0.113053 0.110761 0.105721 0.0994527 0.0909949 0.0839272 0.0779855 0.0743464 0.071818 0.0716186 0.0713761 0.0700965 0.0697996 0.068889 0.067463 0.0664882 0.0658184 0.0643951 0.0634987 0.0631345 0.0628639 0.0615733 0.061185 0.0600211 0.0580297 0.0559389 0.0534775 0.051123 0.0486427 0.0468258 0.044777 0.0416333 0.0389012 0.0361146 0.0336926 0.0312721 0.0294063 0.027936 0.0264762 0.0253416 0.0241824 0.0229078 0.0212544 0.0191273 0.0169821 0.0148351 0.0131643 0.0115434 0.010006 0.00870833 0.0075906 0.00657536 0.00558547 0.00453822 0.00327257 0.00173561 0.000323326
265.57 0.00025 0.00549305 0.0278163 0.0686611 0.113893 0.136829 0.154189 0.157199 0.160507 0.158273 0.15747 0.159119 0.156189 0.155781 0.157528 0.164363 0.169971 0.170921 0.168139 0.168194 0.171691 0.169851 0.168629 0.166212 0.164502 0.160195 0.154311 0.145223 0.138186 0.131737 0.128653 0.126613 0.123721 0.118753 0.115592 0.109324 0.109615 0.10855 0.108011 0.111206 0.112128 0.115507 0.114377 0.115617 0.113121 0.1109 0.105827 0.0996471 0.0911888 0.0840041 0.0780476 0.0743575 0.0718286 0.0715763 0.0713342 0.0701307 0.0698756 0.0689808 0.0675319 0.0665316 0.0657603 0.0643369 0.0633975 0.0630803 0.062884 0.0615696 0.061172 0.0600427 0.0580077 0.0558922 0.0534686 0.0511588 0.0486462 0.0468384 0.0447975 0.041675 0.0389511 0.0361508 0.0337034 0.031306 0.0294066 0.0279426 0.0264606 0.0253246 0.0241685 0.0229381 0.0213097 0.0191878 0.0170557 0.0148935 0.013202 0.011575 0.0100256 0.00871777 0.00759099 0.00657045 0.00557863 0.00453181 0.00327043 0.00173441 0.000323148
265.5725 0.00025 0.00548318 0.0278404 0.0688195 0.114187 0.137205 0.154557 0.157239 0.160681 0.158156 0.157711 0.159163 0.156454 0.156089 0.157472 0.16461 0.17006 0.170895 0.168577 0.168249 0.17177 0.169532 0.168492 0.166229 0.164369 0.159903 0.154344 0.145344 0.138515 0.132067 0.128924 0.126936 0.124104 0.118857 0.115538 0.109074 0.109501 0.108325 0.10788 0.11117 0.112208 0.115525 0.114462 0.115603 0.113172 0.111041 0.10593 0.0998351 0.0913923 0.0840836 0.0781224 0.0743663 0.0718427 0.0715352 0.0712803 0.0701644 0.0699474 0.0690732 0.0676032 0.0665833 0.0657094 0.0642805 0.0632986 0.0630216 0.0629046 0.0615712 0.0611568 0.0600698 0.0579899 0.0558513 0.0534644 0.0511948 0.0486567 0.0468517 0.0448149 0.0417164 0.0390008 0.0361903 0.0337131 0.0313393 0.0294094 0.027949 0.0264471 0.0253088 0.0241526 0.0229626 0.0213662 0.0192466 0.0171276 0.0149532 0.0132401 0.0116066 0.0100458 0.00872777 0.00759178 0.0065657 0.0055719 0.0045254 0.00326829 0.00173321 0.000322947
265.575 0.00025 0.00546944 0.0278443 0.0690198 0.114537 0.137515 0.154955 0.157272 0.160786 0.158107 0.157942 0.159214 0.156742 0.156358 0.157514 0.164867 0.170103 0.170916 0.168969 0.168232 0.171808 0.169196 0.168323 0.166219 0.164248 0.159565 0.154369 0.145465 0.138861 0.132424 0.129222 0.127275 0.124476 0.118973 0.115481 0.10886 0.109399 0.108115 0.107759 0.111141 0.112288 0.11553 0.114565 0.115576 0.113208 0.111185 0.106031 0.100018 0.0915985 0.0841664 0.0782125 0.0743716 0.0718586 0.0714977 0.0712148 0.0701975 0.0700177 0.069166 0.0676788 0.0666393 0.065665 0.064227 0.0632032 0.06296 0.0629255 0.0615797 0.0611399 0.060102 0.0579779 0.0558168 0.0534655 0.0512309 0.0486741 0.0468672 0.0448298 0.041757 0.0390498 0.0362326 0.0337224 0.0313716 0.0294151 0.0279555 0.0264359 0.0252937 0.0241358 0.0229807 0.0214235 0.0193042 0.0171975 0.0150139 0.0132791 0.0116386 0.0100667 0.00873833 0.00759299 0.00656112 0.0055653 0.00451899 0.00326614 0.00173203 0.000322738