# Probe 0 1 0.5 0.5
#       Probe             0
#        Time
        290.5             10.7854 -0.068817 0.380563
        290.5             10.7952 -0.0758003 0.381511
      290.501             10.8053 -0.0835726 0.380333
      290.501             10.8158 -0.0920301 0.376929
      290.501             10.8267 -0.101049 0.371194
      290.501             10.838 -0.110505 0.363036
      290.502             10.8496 -0.120271 0.352376
      290.502             10.8616 -0.130209 0.339152
      290.502             10.8738 -0.140181 0.323323
      290.502             10.8862 -0.150057 0.304872
      290.503             10.8987 -0.159714 0.283792
      290.503             10.9112 -0.169038 0.260116
      290.503             10.9235 -0.177927 0.233924
      290.503             10.9355 -0.186293 0.205322
      290.504             10.9471 -0.194068 0.174461
      290.504             10.958 -0.201196 0.141544
      290.504             10.9682 -0.207622 0.106812
      290.504             10.9775 -0.213309 0.0706
      290.505             10.986 -0.218225 0.0332534
      290.505             10.9936 -0.222339 -0.00482813
      290.505             11.0003 -0.225614 -0.0431464
      290.505             11.006 -0.228026 -0.0812092
      290.506             11.0111 -0.22951 -0.118545
      290.506             11.0156 -0.230022 -0.154557
      290.506             11.0197 -0.229544 -0.188605
      290.506             11.0236 -0.228 -0.220151
      290.507             11.0276 -0.225298 -0.248681
      290.507             11.0318 -0.221389 -0.273665
      290.507             11.0367 -0.216297 -0.294587
      290.507             11.0423 -0.209977 -0.311042
      290.508             11.0489 -0.202394 -0.322725
      290.508             11.0565 -0.193631 -0.329376
      290.508             11.0653 -0.183792 -0.330839
      290.508             11.0753 -0.172975 -0.327103
      290.509             11.0862 -0.161332 -0.318254
      290.509             11.0981 -0.149078 -0.304464
      290.509             11.1108 -0.136465 -0.286056
      290.509             11.1239 -0.123759 -0.263425
       290.51             11.1374 -0.111254 -0.237045
       290.51             11.1507 -0.0992693 -0.207476
       290.51             11.1639 -0.0881238 -0.175342
       290.51             11.1767 -0.0781292 -0.141276
      290.511             11.1889 -0.0695794 -0.10592
      290.511             11.2003 -0.0627236 -0.0699635
      290.511             11.2111 -0.0577475 -0.0341386
      290.511             11.2211 -0.0548645 0.000902744
      290.512             11.2306 -0.0541942 0.0345552
      290.512             11.2394 -0.0557218 0.066259
      290.512             11.2477 -0.0593297 0.0954137
      290.512             11.2556 -0.0653962 0.121505
      290.513             11.2633 -0.0735754 0.144203
      290.513             11.2707 -0.083365 0.163101
      290.513             11.2776 -0.0948315 0.177774
      290.513             11.2844 -0.107807 0.188041
      290.514             11.2911 -0.121919 0.193733
      290.514             11.2975 -0.136819 0.194666
      290.514             11.3037 -0.152337 0.190829
      290.514             11.3096 -0.16822 0.18233
      290.515             11.3153 -0.18422 0.169319
      290.515             11.3206 -0.200126 0.152001
      290.515             11.3255 -0.21575 0.130694
      290.515             11.3297 -0.230924 0.10585
      290.516             11.3334 -0.245491 0.0778475
      290.516             11.3366 -0.259315 0.0471116
      290.516             11.3392 -0.272295 0.0142978
      290.516             11.3412 -0.28433 -0.0199889
      290.517             11.3426 -0.295325 -0.055231
      290.517             11.3432 -0.305203 -0.0908505
      290.517             11.3432 -0.313902 -0.126222
      290.517             11.3426 -0.32137 -0.160802
      290.518             11.3413 -0.32756 -0.19409
      290.518             11.3391 -0.332457 -0.225587
      290.518             11.3362 -0.336062 -0.254844
      290.518             11.3325 -0.338389 -0.28152
      290.519             11.3279 -0.339509 -0.305326
      290.519             11.3223 -0.339537 -0.325961
      290.519             11.3158 -0.338562 -0.343295
      290.519             11.3084 -0.33672 -0.35724
       290.52             11.2998 -0.3343 -0.367678
       290.52             11.2903 -0.331338 -0.374613
       290.52             11.2796 -0.327956 -0.378116
       290.52             11.268 -0.324504 -0.378274
      290.521             11.2555 -0.321205 -0.375171
      290.521             11.2421 -0.318261 -0.368976
      290.521             11.228 -0.315879 -0.359921
      290.521             11.2135 -0.314243 -0.348225
      290.522             11.1987 -0.31349 -0.33415
      290.522             11.1838 -0.313717 -0.318003
      290.522             11.169 -0.314984 -0.300098
      290.522             11.1547 -0.317299 -0.280763
      290.523             11.1409 -0.320644 -0.260346
      290.523             11.128 -0.324964 -0.239214
      290.523             11.1161 -0.330167 -0.217732
      290.523             11.1054 -0.336132 -0.196264
      290.524             11.096 -0.342718 -0.175164
      290.524             11.0881 -0.349784 -0.154775
      290.524             11.0818 -0.357171 -0.135414
      290.524             11.0772 -0.364704 -0.117369
      290.525             11.0742 -0.372234 -0.100912
      290.525             11.0729 -0.379631 -0.086278
      290.525             11.0733 -0.386745 -0.0736477
      290.525             11.0753 -0.393437 -0.063174
      290.526             11.0789 -0.399628 -0.0549744
      290.526             11.0839 -0.405292 -0.0491219
      290.526             11.0902 -0.410285 -0.0456194
      290.526             11.0977 -0.414532 -0.0444483
      290.527             11.1062 -0.418091 -0.0455724
      290.527             11.1156 -0.420994 -0.0489089
      290.527             11.1256 -0.423263 -0.054311
      290.527             11.1362 -0.42496 -0.0616102
      290.528             11.147 -0.426183 -0.0706327
      290.528             11.1579 -0.427035 -0.0811665
      290.528             11.1688 -0.427623 -0.0929499
      290.528             11.1796 -0.428056 -0.105701
      290.529             11.19 -0.428458 -0.119142
      290.529             11.1999 -0.42894 -0.13297
      290.529             11.2093 -0.429606 -0.146851
      290.529             11.218 -0.430542 -0.160464
       290.53             11.226 -0.431825 -0.173507
       290.53             11.2331 -0.4335 -0.185674
       290.53             11.2393 -0.435594 -0.196665
       290.53             11.2444 -0.438116 -0.206221
      290.531             11.2484 -0.441035 -0.214127
      290.531             11.2512 -0.444289 -0.220198
      290.531             11.2527 -0.447811 -0.224292
      290.531             11.2528 -0.451504 -0.226321
      290.532             11.2514 -0.45521 -0.226255
      290.532             11.2484 -0.458733 -0.224112
      290.532             11.2438 -0.461958 -0.21999
      290.532             11.2375 -0.464758 -0.214038
      290.533             11.2295 -0.46679 -0.206435
      290.533             11.2198 -0.467812 -0.197419
      290.533             11.2084 -0.467712 -0.187251
      290.533             11.1954 -0.466314 -0.176227
      290.534             11.1809 -0.46343 -0.164658
      290.534             11.1651 -0.458918 -0.15286
      290.534             11.1482 -0.452687 -0.141135
      290.534             11.1305 -0.444701 -0.129793
      290.535             11.112 -0.434952 -0.119103
      290.535             11.0933 -0.423455 -0.109279
      290.535             11.0744 -0.410266 -0.100513
      290.535             11.0559 -0.395479 -0.0929683
      290.536             11.0379 -0.379254 -0.086731
      290.536             11.0209 -0.36177 -0.0818306
      290.536             11.005 -0.34321 -0.0782728
      290.536             10.9907 -0.323766 -0.0760243
      290.537             10.9782 -0.303651 -0.0750068
      290.537             10.9677 -0.283108 -0.0750913
      290.537             10.9595 -0.262336 -0.0761388
      290.537             10.9538 -0.241506 -0.0779979
      290.538             10.9508 -0.220809 -0.080493
      290.538             10.9504 -0.200435 -0.0834377
      290.538             10.9528 -0.180495 -0.0866477
      290.538             10.958 -0.161077 -0.0899782
      290.539             10.966 -0.142329 -0.0932323
      290.539             10.9766 -0.12438 -0.0962573
      290.539             10.9898 -0.107182 -0.0989094
      290.539             11.0052 -0.0907408 -0.101157
       290.54             11.0228 -0.0753497 -0.10289
       290.54             11.0421 -0.0609799 -0.103852
       290.54             11.0627 -0.0474485 -0.104401
       290.54             11.0842 -0.0348395 -0.104744
      290.541             11.1062 -0.0231833 -0.104612
      290.541             11.1282 -0.0123387 -0.103868
      290.541             11.1497 -0.00236753 -0.102702
      290.541             11.17 0.00681741 -0.101149
      290.542             11.189 0.0153982 -0.0990793
      290.542             11.2061 0.023412 -0.0965597
      290.542             11.2209 0.0309236 -0.0936768
      290.542             11.2331 0.0379856 -0.0905129
      290.543             11.2424 0.044693 -0.0871627
      290.543             11.2485 0.0511611 -0.0837962
      290.543             11.2516 0.0574617 -0.0805948
      290.543             11.2516 0.0636326 -0.0777381
      290.544             11.2486 0.0696838 -0.0753347
      290.544             11.2429 0.0756598 -0.0738387
      290.544             11.2347 0.0815558 -0.073603
      290.544             11.2244 0.0873151 -0.0747335
      290.545             11.2124 0.0929114 -0.0775273
      290.545             11.1991 0.0983029 -0.0822785
      290.545             11.185 0.103398 -0.0891729
      290.545             11.1705 0.108122 -0.098456
      290.546             11.1561 0.112409 -0.110389
      290.546             11.1423 0.116162 -0.125089
      290.546             11.1293 0.119323 -0.142643
      290.546             11.1177 0.121858 -0.163113
      290.547             11.1077 0.123637 -0.186647
      290.547             11.0996 0.124575 -0.213232
      290.547             11.0936 0.1247 -0.242706
      290.547             11.0897 0.123979 -0.274921
      290.548             11.0882 0.122398 -0.3097
      290.548             11.089 0.120014 -0.346811
      290.548             11.092 0.116856 -0.385895
      290.548             11.0971 0.112935 -0.42655
      290.549             11.1041 0.108278 -0.468278
      290.549             11.1126 0.102998 -0.510665
      290.549             11.1225 0.0971199 -0.553283
      290.549             11.1333 0.0906677 -0.595566
       290.55             11.1446 0.0836868 -0.636951
       290.55             11.1559 0.0762796 -0.676918
       290.55             11.1668 0.0685213 -0.714941
       290.55             11.1766 0.0604428 -0.750556
      290.551             11.185 0.0521055 -0.783358
      290.551             11.1913 0.0435702 -0.81292
      290.551             11.1952 0.0349024 -0.838895
      290.551             11.1962 0.0262217 -0.861009
      290.552             11.1938 0.0177137 -0.879111
      290.552             11.1879 0.0093937 -0.89311
      290.552             11.1783 0.00160499 -0.902956
      290.552             11.165 -0.00527434 -0.908711
      290.553             11.1479 -0.0110433 -0.910548
      290.553             11.1274 -0.0154564 -0.908683
      290.553             11.1038 -0.0182121 -0.903386
      290.553             11.0772 -0.0189885 -0.895007
      290.554             11.0482 -0.0175717 -0.88395
      290.554             11.0173 -0.0137374 -0.87063
      290.554             10.9848 -0.00723904 -0.855477
      290.554             10.9514 0.00199564 -0.838954
      290.555             10.9175 0.0137121 -0.821536
      290.555             10.8835 0.0278124 -0.803636
      290.555             10.85 0.0442766 -0.785641
      290.555             10.8173 0.0627892 -0.767965
      290.556             10.7858 0.083009 -0.750987
      290.556             10.7557 0.104511 -0.734974
      290.556             10.7273 0.126969 -0.720142
      290.556             10.7008 0.14985 -0.706795
      290.557             10.6764 0.172718 -0.695129
      290.557             10.6542 0.195198 -0.685264
      290.557             10.6341 0.21688 -0.677161
      290.557             10.6161 0.237266 -0.671158
      290.558             10.6002 0.255857 -0.667226
      290.558             10.5865 0.272479 -0.665418
      290.558             10.5748 0.286946 -0.665816
      290.558             10.5651 0.298992 -0.668163
      290.559             10.5573 0.308447 -0.672357
      290.559             10.5513 0.315311 -0.678218
      290.559             10.5469 0.319604 -0.685554
      290.559             10.5441 0.321341 -0.69415
       290.56             10.5428 0.320594 -0.703785
       290.56             10.5429 0.31752 -0.714189
       290.56             10.5443 0.312285 -0.725097
       290.56             10.547 0.305058 -0.736246
      290.561             10.5507 0.29603 -0.747365
      290.561             10.5556 0.285428 -0.758175
      290.561             10.5615 0.27348 -0.768417
      290.561             10.5684 0.260417 -0.777849
      290.562             10.5763 0.246487 -0.786242
      290.562             10.5849 0.231938 -0.793393
      290.562             10.5944 0.217032 -0.799132
      290.562             10.6047 0.20203 -0.803302
      290.563             10.6157 0.187201 -0.805792
      290.563             10.6273 0.172816 -0.806531
      290.563             10.6396 0.159147 -0.805466
      290.563             10.6524 0.146466 -0.802573
      290.564             10.6657 0.135038 -0.797866
      290.564             10.6795 0.125109 -0.791379
      290.564             10.6936 0.116917 -0.783158
      290.564             10.7082 0.110681 -0.773276
      290.565             10.723 0.106589 -0.761827
      290.565             10.7382 0.104793 -0.748902
      290.565             10.7537 0.105405 -0.734605
      290.565             10.7695 0.108498 -0.719052
      290.566             10.7855 0.114097 -0.702365
      290.566             10.8018 0.122166 -0.684661
      290.566             10.8184 0.132625 -0.666061
      290.566             10.8352 0.145353 -0.6467
      290.567             10.8522 0.160172 -0.626713
      290.567             10.8695 0.17686 -0.606236
      290.567             10.8868 0.195164 -0.585402
      290.567             10.9041 0.214806 -0.564362
      290.568             10.9214 0.235483 -0.543271
      290.568             10.9383 0.256878 -0.522287
      290.568             10.9548 0.27868 -0.501557
      290.568             10.9705 0.300586 -0.481249
      290.569             10.9853 0.322303 -0.461534
      290.569             10.9988 0.343552 -0.442572
      290.569             11.0107 0.364099 -0.424509
      290.569             11.0207 0.383737 -0.407491
       290.57             11.0284 0.402275 -0.391664
       290.57             11.0337 0.419544 -0.377144
       290.57             11.0362 0.435424 -0.364009
       290.57             11.0357 0.449804 -0.352315
      290.571             11.0321 0.462596 -0.342104
      290.571             11.0253 0.473694 -0.333374
      290.571             11.0154 0.483011 -0.32606
      290.571             11.0024 0.490496 -0.320056
      290.572             10.9865 0.496101 -0.315238
      290.572             10.968 0.499705 -0.311445
      290.572             10.9473 0.50121 -0.308456
      290.572             10.9246 0.500593 -0.306017
      290.573             10.9006 0.497841 -0.303862
      290.573             10.8756 0.492814 -0.301742
      290.573             10.8502 0.485433 -0.299363
      290.573             10.8247 0.475734 -0.296413
      290.574             10.7999 0.463749 -0.292614
      290.574             10.7759 0.449428 -0.287748
      290.574             10.7533 0.43279 -0.281572
      290.574             10.7324 0.413931 -0.273865
      290.575             10.7135 0.392961 -0.264473
      290.575             10.6967 0.369925 -0.253307
      290.575             10.6823 0.344947 -0.240267
      290.575             10.6704 0.318145 -0.225367
      290.576             10.6609 0.289822 -0.208646
      290.576             10.6539 0.259948 -0.19018
      290.576             10.6491 0.228544 -0.17016
      290.576             10.6465 0.196001 -0.148825
      290.577             10.6458 0.162599 -0.126461
      290.577             10.6469 0.128546 -0.103193
      290.577             10.6495 0.0940412 -0.0793263
      290.577             10.6534 0.0593776 -0.0553303
      290.578             10.6584 0.0248969 -0.0316376
      290.578             10.6643 -0.00896893 -0.00854422
      290.578             10.6707 -0.041906 0.0135559
      290.578             10.6774 -0.0736934 0.0340338
      290.579             10.6843 -0.103917 0.0524225
      290.579             10.6914 -0.132064 0.0684384
      290.579             10.6984 -0.157965 0.0816692
      290.579             10.7053 -0.181409 0.0916865
       290.58             10.7122 -0.202009 0.098254
       290.58             10.7191 -0.219504 0.101235
       290.58             10.7263 -0.233627 0.100449
       290.58             10.7337 -0.244114 0.0958713
      290.581             10.7413 -0.250811 0.0876525
      290.581             10.7493 -0.253577 0.0759948
      290.581             10.7581 -0.252349 0.0610328
      290.581             10.7674 -0.247037 0.0433203
      290.582             10.7771 -0.23758 0.02344
      290.582             10.7876 -0.224056 0.00181865
      290.582             10.7987 -0.206591 -0.0208465
      290.582             10.8106 -0.18536 -0.0441739
      290.583             10.8234 -0.160472 -0.0676354
      290.583             10.837 -0.132312 -0.0904663
      290.583             10.8511 -0.101361 -0.112108
      290.583             10.8658 -0.0680343 -0.131953
      290.584             10.8812 -0.0327898 -0.149668
      290.584             10.8969 0.00394093 -0.164835
      290.584             10.9128 0.0412164 -0.177008
      290.584             10.9287 0.0782689 -0.186001
      290.585             10.9444 0.114545 -0.191588
      290.585             10.9596 0.149349 -0.193629
      290.585             10.9743 0.181943 -0.192163
      290.585             10.9883 0.211529 -0.18729
      290.586             11.0011 0.237503 -0.179069
      290.586             11.0127 0.259344 -0.167681
      290.586             11.023 0.276544 -0.153512
      290.586             11.0318 0.288657 -0.136661
      290.587             11.0389 0.295441 -0.117243
      290.587             11.0443 0.296836 -0.0957185
      290.587             11.0479 0.292803 -0.0724996
      290.587             11.0497 0.283488 -0.0478986
      290.588             11.0497 0.269213 -0.0222875
      290.588             11.0481 0.250372 0.00381895
      290.588             11.045 0.227427 0.030117
      290.588             11.0407 0.201012 0.0562236
      290.589             11.0354 0.171822 0.0816278
      290.589             11.0295 0.140517 0.105837
      290.589             11.0233 0.107808 0.128428
      290.589             11.0171 0.074429 0.148889
       290.59             11.0114 0.041142 0.166783
       290.59             11.0067 0.00852926 0.181748
       290.59             11.0031 -0.0228464 0.193356
       290.59             11.001 -0.0523079 0.201343
      290.591             11.0006 -0.0797511 0.205539
      290.591             11.0019 -0.105006 0.205804
      290.591             11.005 -0.127667 0.202091
      290.591             11.0101 -0.14757 0.194491
      290.592             11.0165 -0.164713 0.183197
      290.592             11.0237 -0.179228 0.168462
      290.592             11.0318 -0.191226 0.150618
      290.592             11.0401 -0.200891 0.130097
      290.593             11.0482 -0.208508 0.107355
      290.593             11.0556 -0.214406 0.0829017
      290.593             11.0617 -0.218868 0.0572928
      290.593             11.066 -0.222192 0.0310599
      290.594             11.0685 -0.224678 0.00471349
      290.594             11.0684 -0.226682 -0.0211991
      290.594             11.0655 -0.228404 -0.0462906
      290.594             11.0597 -0.230125 -0.0700465
      290.595             11.0507 -0.231834 -0.0921299
      290.595             11.0388 -0.233619 -0.112263
      290.595             11.0241 -0.235697 -0.130156
      290.595             11.0066 -0.238018 -0.145737
      290.596             10.9862 -0.240591 -0.158936
      290.596             10.9639 -0.243367 -0.169723
      290.596             10.9402 -0.246219 -0.178143
      290.596             10.9153 -0.249044 -0.184325
      290.597             10.89 -0.251757 -0.188377
      290.597             10.8649 -0.254204 -0.190425
      290.597             10.8404 -0.256224 -0.190637
      290.597             10.817 -0.257704 -0.189189
      290.598             10.7951 -0.258545 -0.186234
      290.598             10.7753 -0.258641 -0.181925
      290.598             10.7577 -0.257916 -0.176418
      290.598             10.7426 -0.256323 -0.169858
      290.599             10.7303 -0.253833 -0.162377
      290.599             10.7207 -0.250444 -0.154055
      290.599             10.714 -0.246179 -0.144988
      290.599             10.7101 -0.241083 -0.135296
        290.6             10.7089 -0.235221 -0.125057
        290.6             10.7103 -0.22868 -0.11437
        290.6             10.714 -0.221576 -0.103333
        290.6             10.7197 -0.214043 -0.0920211
      290.601             10.7272 -0.206228 -0.0805278
      290.601             10.7361 -0.198297 -0.0689558
      290.601             10.7461 -0.190432 -0.0573999
      290.601             10.7567 -0.182834 -0.0459635
      290.602             10.7676 -0.175702 -0.0347564
      290.602             10.7785 -0.169235 -0.023884
      290.602             10.7889 -0.163613 -0.0134393
      290.602             10.7986 -0.159037 -0.00355781
      290.603             10.8072 -0.15569 0.0056993
      290.603             10.8145 -0.153741 0.0142852
      290.603             10.8203 -0.153221 0.0220713
      290.603             10.8244 -0.154164 0.0289421
      290.604             10.8269 -0.15664 0.0348496
      290.604             10.8276 -0.160647 0.0397807
      290.604             10.8268 -0.166118 0.0436486
      290.604             10.8245 -0.172914 0.0464059
      290.605             10.821 -0.18085 0.0480557
      290.605             10.8164 -0.189724 0.0485789
      290.605             10.8111 -0.199281 0.0479681
      290.605             10.8053 -0.209202 0.0462457
      290.606             10.7993 -0.219182 0.0434018
      290.606             10.7936 -0.228905 0.0394367
      290.606             10.7884 -0.238045 0.0343763
      290.606             10.7839 -0.246266 0.0282925
      290.607             10.7806 -0.2533 0.0211604
      290.607             10.7785 -0.258932 0.0129627
      290.607             10.7779 -0.262887 0.00375452
      290.607             10.7789 -0.264975 -0.00642054
      290.608             10.7816 -0.265112 -0.01753
      290.608             10.7859 -0.263241 -0.0295569
      290.608             10.7917 -0.259382 -0.042438
      290.608             10.799 -0.253615 -0.0561072
      290.609             10.8076 -0.246056 -0.0705001
      290.609             10.8173 -0.236874 -0.0854992
      290.609             10.8278 -0.22629 -0.100983
      290.609             10.8388 -0.214562 -0.116824
       290.61             10.8502 -0.201961 -0.13286
       290.61             10.8616 -0.18878 -0.148902
       290.61             10.8728 -0.175298 -0.164755
       290.61             10.8836 -0.161791 -0.180198
      290.611             10.8937 -0.148502 -0.194994
      290.611             10.903 -0.135641 -0.208921
      290.611             10.9115 -0.123364 -0.221785
      290.611             10.919 -0.111822 -0.233356
      290.612             10.9256 -0.101104 -0.243429
      290.612             10.9313 -0.0912144 -0.251847
      290.612             10.9361 -0.0821125 -0.25853
      290.612             10.9402 -0.073725 -0.263421
      290.613             10.9437 -0.0659599 -0.266456
      290.613             10.9468 -0.0586766 -0.267663
      290.613             10.9496 -0.0517302 -0.267106
      290.613             10.9522 -0.0449243 -0.264868
      290.614             10.955 -0.0380916 -0.26112
      290.614             10.9579 -0.0310392 -0.256086
      290.614             10.9609 -0.0235739 -0.249907
      290.614             10.9645 -0.015546 -0.242716
      290.615             10.9684 -0.00690567 -0.2348
      290.615             10.9728 0.00254999 -0.226413
      290.615             10.9776 0.0129838 -0.217754
      290.615             10.9829 0.0243501 -0.209106
      290.616             10.9886 0.0364464 -0.200685
      290.616             10.9948 0.0491712 -0.192599
      290.616             11.0012 0.0625304 -0.184972
      290.616             11.0079 0.0763256 -0.177918
      290.617             11.0147 0.0903708 -0.171497
      290.617             11.0215 0.104499 -0.16572
      290.617             11.028 0.118476 -0.160562
      290.617             11.0341 0.13202 -0.155987
      290.618             11.0397 0.144863 -0.151926
      290.618             11.0446 0.156771 -0.148279
      290.618             11.0485 0.167489 -0.144927
      290.618             11.0514 0.176765 -0.141752
      290.619             11.0532 0.184395 -0.138629
      290.619             11.0537 0.190202 -0.135426
      290.619             11.0529 0.194044 -0.132015
      290.619             11.0507 0.195816 -0.128295
       290.62             11.0471 0.195452 -0.124176
       290.62             11.042 0.192929 -0.119574
       290.62             11.0356 0.188283 -0.114443
       290.62             11.0279 0.181574 -0.10875
      290.621             11.0188 0.172893 -0.102488
      290.621             11.0087 0.162378 -0.0956648
      290.621             10.9974 0.150192 -0.0883223
      290.621             10.9853 0.136532 -0.0805327
      290.622             10.9724 0.121593 -0.0723673
      290.622             10.959 0.105578 -0.0639073
      290.622             10.9452 0.0887385 -0.0552708
      290.622             10.9311 0.0713141 -0.0465491
      290.623             10.917 0.0535123 -0.0378564
      290.623             10.903 0.0355472 -0.0293368
      290.623             10.8893 0.017672 -0.0211129
      290.623             10.8762 9.99842e-05 -0.0133474
      290.624             10.8636 -0.0170138 -0.00612958
      290.624             10.8519 -0.0335498 0.000446408
      290.624             10.841 -0.049191 0.00623941
      290.624             10.8311 -0.0637594 0.0110368
      290.625             10.8223 -0.0771542 0.0148631
      290.625             10.8146 -0.0891653 0.0177329
      290.625             10.8082 -0.0997115 0.0194819
      290.625             10.8031 -0.108722 0.0200212
      290.626             10.7993 -0.116124 0.0192991
      290.626             10.7968 -0.121835 0.017302
      290.626             10.7955 -0.125825 0.0139974
      290.626             10.7955 -0.128106 0.00936437
      290.627             10.7966 -0.128682 0.00341963
      290.627             10.7989 -0.127575 -0.00379847
      290.627             10.8022 -0.124843 -0.0122283
      290.627             10.8065 -0.120563 -0.0217828
      290.628             10.8117 -0.114838 -0.0323489
      290.628             10.8176 -0.107785 -0.0437864
      290.628             10.8242 -0.0995343 -0.0559297
      290.628             10.8315 -0.0902454 -0.0685861
      290.629             10.8391 -0.080099 -0.0815467
      290.629             10.8471 -0.0692813 -0.0945851
      290.629             10.8554 -0.057983 -0.107454
      290.629             10.8638 -0.0464131 -0.119897
       290.63             10.8723 -0.0347798 -0.131664
       290.63             10.8807 -0.0232826 -0.142512
       290.63             10.8889 -0.0121016 -0.152203
       290.63             10.8969 -0.00143987 -0.160509
      290.631             10.9045 0.00852237 -0.167241
      290.631             10.9117 0.0176725 -0.172239
      290.631             10.9183 0.0258872 -0.175317
      290.631             10.9243 0.0329709 -0.1765
      290.632             10.9296 0.038834 -0.175797
      290.632             10.9342 0.0434931 -0.173148
      290.632             10.938 0.0469778 -0.168644
      290.632             10.9412 0.0492931 -0.162392
      290.633             10.9436 0.0504548 -0.15451
      290.633             10.9452 0.050564 -0.145187
      290.633             10.9462 0.0497173 -0.134628
      290.633             10.9465 0.0480096 -0.123051
      290.634             10.9461 0.0455875 -0.110712
      290.634             10.9451 0.0426134 -0.0978791
      290.634             10.9436 0.0392252 -0.0848194
      290.634             10.9415 0.0355588 -0.0717776
      290.635             10.939 0.0317951 -0.0590053
      290.635             10.9361 0.0280826 -0.0467443
      290.635             10.9329 0.0244933 -0.0352278
      290.635             10.9294 0.0211593 -0.0246056
      290.636             10.9258 0.0182317 -0.0150264
      290.636             10.922 0.0156878 -0.00662377
      290.636             10.9181 0.0134827 0.000487949
      290.636             10.9141 0.0117 0.00626874
      290.637             10.9102 0.0103848 0.0107045
      290.637             10.9062 0.00949298 0.0137677
      290.637             10.9022 0.00899583 0.0154215
      290.637             10.8982 0.00883416 0.0158405
      290.638             10.8941 0.0089619 0.0151368
      290.638             10.89 0.00940954 0.01328
      290.638             10.8857 0.0100963 0.0103555
      290.638             10.8813 0.0108983 0.00649063
      290.639             10.8765 0.0117382 0.00179314
      290.639             10.8716 0.0125645 -0.00365788
      290.639             10.8666 0.013317 -0.00976208