255.5025 0.00025 48.0926 12.923 3.73125 3.38732 3.22508 3.30145 3.35615 3.56428 3.37074 3.29613 3.39014 3.43356 3.4635 3.25901 3.29172 3.26098 3.35605 3.40056 3.53499 3.4983 3.53111 3.52317 3.49672 3.33037 3.28866 3.1921 3.10074 2.9921 3.07196 3.10861 3.21978 3.30168 3.31972 3.28969 3.20347 3.11076 3.14825 3.19341 3.07719 3.01477 3.05427 3.06705 3.12289 3.132 3.24581 3.3307 3.34842 3.26283 3.1883 3.15953 3.15179 3.14941 3.11784 3.10689 3.16691 3.29866 3.41706 3.49479 3.46435 3.40988 3.35394 3.21085 3.2875 3.12488 3.17798 3.1135 3.14963 3.1115 3.09669 3.11283 3.2051 3.23518 3.44328 3.69556 4.01403 4.06024 4.25741 4.42339 4.39538 4.25919 4.13634 4.02913 4.00676 3.97157 4.00012 4.10005 4.3984 4.60158 4.82264 4.82018 4.79212 4.75455 4.72371 4.5887 4.93601 5.56277 6.23477 6.68332 5.85749 4.90855
255.505 0.00025 92.1439 4.35546 3.71062 3.36369 3.21405 3.28961 3.3369 3.55568 3.40222 3.29469 3.35694 3.40037 3.45366 3.27756 3.30058 3.25942 3.36177 3.42646 3.53748 3.50988 3.56633 3.52874 3.48921 3.31555 3.25521 3.18929 3.09782 2.98803 3.04579 3.10153 3.22869 3.30985 3.32947 3.29946 3.21009 3.12028 3.16282 3.19949 3.08742 3.01399 3.06073 3.06731 3.10679 3.11012 3.22265 3.31121 3.3416 3.27148 3.1932 3.15959 3.14426 3.12952 3.0955 3.08015 3.14827 3.27667 3.3968 3.48607 3.46591 3.41107 3.35863 3.20611 3.30083 3.133 3.17703 3.11901 3.1485 3.1222 3.1167 3.13222 3.22405 3.23752 3.42863 3.68559 4.0118 4.08386 4.27114 4.43705 4.41187 4.28046 4.15963 4.06079 4.03937 4.00671 4.01647 4.10525 4.39759 4.60437 4.82893 4.84563 4.82353 4.76507 4.74028 4.59596 4.91123 5.51418 6.21469 6.74784 5.98444 4.97512
255.5075 0.00025 41.5621 4.1959 3.71082 3.34045 3.2052 3.27538 3.32113 3.54691 3.43448 3.30062 3.3288 3.36773 3.4335 3.29246 3.31598 3.25489 3.36297 3.45156 3.53803 3.52476 3.59226 3.52845 3.4767 3.30588 3.22784 3.18753 3.09471 2.98641 3.02267 3.09297 3.236 3.31867 3.34436 3.30982 3.22101 3.13919 3.18184 3.20591 3.10038 3.01726 3.06782 3.06732 3.09207 3.0896 3.20066 3.29382 3.33545 3.28121 3.20148 3.16127 3.14015 3.11166 3.07312 3.05601 3.12973 3.25685 3.37666 3.47462 3.46694 3.40977 3.36114 3.20117 3.31066 3.14518 3.17526 3.12673 3.14739 3.13271 3.13626 3.15234 3.24388 3.24135 3.41266 3.67119 4.00324 4.10177 4.28276 4.44759 4.42596 4.29758 4.17969 4.08923 4.06887 4.03973 4.02952 4.10525 4.39113 4.60293 4.83229 4.86567 4.85273 4.77783 4.75829 4.59963 4.87318 5.43966 6.15668 6.76687 6.08161 5.03229
255.51 0.00025 16.0622 4.98191 3.71988 3.31801 3.19754 3.26032 3.30825 3.53559 3.46354 3.31419 3.30873 3.33676 3.40843 3.30298 3.33436 3.24885 3.36068 3.47612 3.5413 3.54044 3.60676 3.52643 3.46047 3.29909 3.20636 3.18539 3.08936 2.98359 3.00279 3.08334 3.23996 3.32509 3.36005 3.31765 3.23079 3.16173 3.2018 3.21181 3.11479 3.02427 3.07564 3.06723 3.07933 3.06969 3.17842 3.27585 3.32756 3.28882 3.21189 3.16359 3.13938 3.09584 3.05001 3.03527 3.11146 3.23903 3.35677 3.46064 3.46736 3.40447 3.36052 3.1961 3.31612 3.15916 3.17303 3.13618 3.14649 3.14269 3.15535 3.17314 3.26511 3.24536 3.39544 3.65305 3.99085 4.11542 4.29383 4.45866 4.44072 4.31274 4.19855 4.11711 4.09812 4.0731 4.04391 4.10527 4.38353 4.59886 4.83344 4.88132 4.8783 4.79 4.77711 4.60549 4.8309 5.34633 6.0607 6.73545 6.14664 5.0793
255.5125 0.00025 8.81615 4.55942 3.72523 3.29877 3.1866 3.24791 3.29627 3.52039 3.48899 3.33386 3.29758 3.30954 3.3833 3.30966 3.35287 3.24525 3.35614 3.49731 3.54655 3.55414 3.60919 3.52555 3.44311 3.29386 3.18999 3.18307 3.08322 2.9779 2.98586 3.07385 3.23983 3.32935 3.37371 3.32343 3.23895 3.18609 3.22049 3.2169 3.12953 3.03422 3.0833 3.06651 3.06849 3.05022 3.15548 3.25631 3.31805 3.29376 3.22315 3.16677 3.14199 3.08228 3.02691 3.01837 3.09445 3.22283 3.33737 3.44475 3.46761 3.39566 3.35752 3.19087 3.31653 3.17468 3.17095 3.14632 3.145 3.15025 3.17237 3.19313 3.28772 3.25169 3.37879 3.63251 3.97658 4.12579 4.30473 4.47176 4.45783 4.32659 4.21589 4.14374 4.12672 4.10617 4.06022 4.10616 4.37604 4.59321 4.8325 4.89307 4.90139 4.80174 4.79796 4.62219 4.80404 5.26531 5.96325 6.6817 6.19443 5.12215
255.515 0.00025 6.42028 4.06698 3.72698 3.28691 3.17236 3.24057 3.28216 3.50214 3.50944 3.35568 3.29161 3.28942 3.36191 3.31208 3.36956 3.2482 3.35269 3.5122 3.55248 3.5638 3.60013 3.52691 3.4273 3.28949 3.17824 3.18044 3.07802 2.96883 2.97126 3.06535 3.23514 3.33271 3.38379 3.328 3.24615 3.21067 3.23639 3.22128 3.14442 3.0466 3.0907 3.06545 3.05863 3.03125 3.1327 3.23594 3.30762 3.29585 3.23474 3.17133 3.14655 3.07078 3.00473 3.00456 3.07849 3.20734 3.31931 3.42743 3.46696 3.38408 3.35244 3.18663 3.31247 3.19079 3.16864 3.15704 3.14408 3.15542 3.1873 3.21107 3.31045 3.26075 3.36365 3.61086 3.96106 4.13301 4.31451 4.4868 4.47867 4.34075 4.23203 4.16836 4.15386 4.13854 4.07841 4.10779 4.36934 4.58726 4.8312 4.90168 4.92294 4.81505 4.81994 4.65034 4.80396 5.22807 5.9209 6.67669 6.26387 5.17409
255.5175 0.00025 5.50009 4.01239 3.73598 3.27544 3.15786 3.23934 3.26447 3.48222 3.52211 3.37871 3.29002 3.27899 3.34505 3.30921 3.38177 3.25865 3.35221 3.52039 3.55918 3.56824 3.5827 3.53015 3.4154 3.28641 3.17196 3.17662 3.07564 2.95788 2.95816 3.05789 3.22584 3.33627 3.3897 3.33177 3.25288 3.2342 3.24988 3.22497 3.15919 3.06082 3.09782 3.0647 3.04932 3.01314 3.1107 3.21493 3.29607 3.29465 3.2461 3.17753 3.15226 3.06152 2.98413 2.99265 3.06388 3.19304 3.30419 3.41013 3.46478 3.37029 3.3437 3.18194 3.30339 3.20707 3.16672 3.16888 3.14465 3.15945 3.20143 3.22747 3.3329 3.27275 3.35043 3.58827 3.94476 4.13713 4.32239 4.50326 4.5043 4.35726 4.2485 4.19216 4.18051 4.17045 4.09881 4.11008 4.36379 4.58162 4.83049 4.90788 4.9425 4.83026 4.84054 4.68097 4.81764 5.22497 5.93841 6.75185 6.39316 5.24751
255.52 0.00025 4.91779 4.03571 3.74324 3.26158 3.14583 3.24206 3.24397 3.46184 3.52522 3.40071 3.29521 3.2783 3.33124 3.3017 3.38814 3.27519 3.35495 3.52143 3.56452 3.56626 3.56 3.53254 3.40992 3.28503 3.17052 3.17064 3.07696 2.94749 2.9461 3.05127 3.2121 3.3395 3.39131 3.33502 3.26009 3.25568 3.26072 3.22825 3.17421 3.0754 3.10399 3.06434 3.03995 2.99601 3.0897 3.19341 3.28309 3.29036 3.25675 3.18513 3.15814 3.05479 2.96641 2.98141 3.05069 3.18028 3.29246 3.39395 3.46233 3.35753 3.33183 3.17589 3.29015 3.2226 3.16522 3.18171 3.14729 3.1629 3.21559 3.2441 3.35527 3.28754 3.33946 3.56499 3.92754 4.13792 4.32794 4.52002 4.5346 4.37662 4.26521 4.21496 4.20694 4.20224 4.12218 4.11377 4.35895 4.5759 4.83 4.91237 4.9592 4.84624 4.85854 4.70893 4.82903 5.2218 5.95981 6.83246 6.54434 5.34007
255.5225 0.00025 4.40647 3.98102 3.74323 3.24042 3.13836 3.24453 3.22306 3.44228 3.51795 3.41914 3.30961 3.28387 3.31877 3.29146 3.389 3.2955 3.36054 3.51739 3.56555 3.55802 3.53474 3.53167 3.41292 3.28537 3.17153 3.16098 3.08125 2.93973 2.93521 3.04581 3.19596 3.34137 3.39033 3.3384 3.26902 3.27438 3.26934 3.23113 3.18965 3.08973 3.10972 3.06465 3.03024 2.9801 3.07008 3.17159 3.26881 3.28312 3.26572 3.19337 3.16359 3.05116 2.9528 2.97047 3.0387 3.16842 3.28356 3.37887 3.45863 3.34677 3.31818 3.16966 3.27307 3.23621 3.16412 3.1959 3.15322 3.16596 3.2299 3.2619 3.37806 3.30503 3.33101 3.54082 3.90944 4.13539 4.33096 4.53532 4.56946 4.39939 4.28181 4.23637 4.23274 4.23334 4.14829 4.11953 4.35549 4.56992 4.82946 4.91588 4.97351 4.86242 4.8736 4.73635 4.83819 5.20394 5.94751 6.85003 6.63751 5.41513
255.525 0.00025 4.0977 3.92141 3.73402 3.2128 3.13862 3.24089 3.20474 3.42305 3.50235 3.43318 3.33377 3.29197 3.30775 3.28009 3.38531 3.31701 3.36786 3.51044 3.55827 3.54487 3.50848 3.5238 3.42506 3.28914 3.17415 3.14742 3.08577 2.93614 2.92573 3.04067 3.17936 3.34078 3.38772 3.34232 3.28006 3.29024 3.27657 3.23369 3.20552 3.10333 3.11539 3.06527 3.02036 2.96601 3.05226 3.14946 3.25359 3.27344 3.27246 3.20136 3.16833 3.0508 2.94391 2.9597 3.02805 3.1572 3.27619 3.36386 3.45195 3.33725 3.30246 3.16353 3.25293 3.24724 3.16303 3.21162 3.1626 3.16881 3.24319 3.27931 3.40066 3.32496 3.32531 3.51639 3.89106 4.12992 4.33156 4.54772 4.60764 4.42656 4.2991 4.25697 4.25811 4.26356 4.17666 4.12778 4.35423 4.56474 4.82934 4.91909 4.98577 4.87933 4.88762 4.76505 4.84942 5.17523 5.9087 6.83178 6.69596 5.47407
255.5275 0.00025 3.96933 3.89527 3.71541 3.18762 3.14738 3.22893 3.19048 3.4026 3.48078 3.44482 3.36644 3.30026 3.29908 3.26753 3.37805 3.33624 3.37635 3.50176 3.53981 3.52729 3.48222 3.50764 3.44588 3.29754 3.17926 3.13203 3.08693 2.93767 2.9186 3.03454 3.16362 3.33712 3.38352 3.34667 3.29247 3.30283 3.28283 3.23599 3.22168 3.11554 3.12134 3.06627 3.01031 2.95416 3.0366 3.12712 3.23843 3.26206 3.27673 3.20886 3.17334 3.05374 2.93959 2.94975 3.01892 3.14686 3.27016 3.34904 3.44356 3.32976 3.28631 3.15742 3.23202 3.25605 3.16206 3.22781 3.1742 3.17112 3.25475 3.29493 3.42143 3.34653 3.32355 3.49293 3.87271 4.12166 4.32983 4.55603 4.6479 4.45885 4.31753 4.27699 4.28305 4.29289 4.20717 4.13863 4.35502 4.56081 4.82968 4.92233 4.99595 4.89742 4.90246 4.79404 4.86266 5.14387 5.8666 6.81859 6.76628 5.5459
255.53 0.00025 3.91612 3.88236 3.69355 3.16973 3.16178 3.21021 3.1807 3.37982 3.45502 3.45683 3.40393 3.30913 3.29263 3.2531 3.36858 3.35061 3.38687 3.4916 3.51136 3.50482 3.45584 3.48344 3.47339 3.31143 3.188 3.11774 3.08247 2.94472 2.91458 3.02764 3.14955 3.32978 3.37738 3.35196 3.30486 3.31204 3.28813 3.23764 3.23729 3.12634 3.12727 3.06717 3.00026 2.94449 3.0234 3.10477 3.22368 3.25036 3.27934 3.21626 3.17994 3.05869 2.93929 2.94105 3.01056 3.13775 3.26628 3.33522 3.43441 3.32533 3.27167 3.15195 3.21184 3.26276 3.16157 3.24452 3.18786 3.17332 3.26449 3.30947 3.44061 3.36927 3.32625 3.47036 3.85433 4.11029 4.32593 4.55915 4.68847 4.49706 4.33749 4.29666 4.3075 4.32139 4.23925 4.15258 4.35791 4.55743 4.83049 4.92627 5.00479 4.91647 4.91829 4.82249 4.88025 5.11623 5.82613 6.79812 6.82447 5.61373
255.5325 0.00025 3.89774 3.87405 3.67033 3.15861 3.17609 3.18887 3.17556 3.35397 3.42719 3.47165 3.44186 3.32199 3.28711 3.238 3.35782 3.35795 3.39953 3.47875 3.4764 3.4763 3.4301 3.45457 3.50355 3.33057 3.20048 3.10565 3.07049 2.95722 2.91435 3.02041 3.13764 3.31903 3.36902 3.35843 3.31575 3.31816 3.29221 3.23903 3.25191 3.13608 3.1326 3.06679 2.99036 2.93726 3.0128 3.08229 3.20839 3.23878 3.28101 3.22339 3.18794 3.06446 2.94313 2.9337 3.00281 3.12934 3.2637 3.32122 3.42398 3.32254 3.25917 3.14767 3.19307 3.26732 3.16183 3.26211 3.20529 3.17771 3.27303 3.32319 3.45821 3.39291 3.33344 3.44909 3.83614 4.09615 4.32028 4.55641 4.72735 4.54146 4.3599 4.31655 4.33106 4.349 4.27207 4.16929 4.36261 4.55442 4.83189 4.93111 5.01229 4.93492 4.93297 4.84848 4.90296 5.09466 5.78343 6.76224 6.86338 5.67569
255.535 0.00025 3.90376 3.87216 3.65417 3.15156 3.18615 3.16934 3.17541 3.3259 3.39848 3.48972 3.47608 3.34141 3.28066 3.22477 3.34643 3.3581 3.41286 3.46392 3.43829 3.44158 3.40532 3.42535 3.53018 3.35467 3.21745 3.09671 3.0506 2.97284 2.91813 3.0137 3.12825 3.30495 3.35817 3.36593 3.32391 3.32238 3.29552 3.24076 3.26544 3.14539 3.13753 3.06496 2.98091 2.9329 3.00468 3.05976 3.19216 3.22741 3.2803 3.22839 3.19609 3.0702 2.95163 2.92878 2.99702 3.12188 3.26232 3.30706 3.41273 3.32065 3.24864 3.14409 3.17609 3.27012 3.16316 3.28008 3.22732 3.18539 3.28113 3.33592 3.47344 3.41647 3.34511 3.42982 3.81875 4.0797 4.31343 4.54798 4.76153 4.59071 4.38488 4.33654 4.35298 4.37499 4.30555 4.18889 4.36941 4.5519 4.83326 4.93645 5.01919 4.95229 4.94763 4.87262 4.93027 5.07869 5.74148 6.72252 6.89346 5.73557
255.5375 0.00025 3.93147 3.87867 3.64954 3.14579 3.18899 3.15457 3.18046 3.29733 3.37006 3.50898 3.50514 3.36856 3.274 3.21527 3.33409 3.35186 3.42267 3.45033 3.39961 3.40277 3.38162 3.40097 3.54817 3.38332 3.23892 3.09272 3.02623 2.98845 2.92594 3.00754 3.121 3.28811 3.34575 3.37449 3.32902 3.32603 3.29821 3.24301 3.27697 3.15465 3.1419 3.06223 2.97243 2.93103 2.99821 3.03812 3.17504 3.21591 3.27516 3.23028 3.20357 3.07511 2.96461 2.92687 2.9941 3.11483 3.26172 3.29363 3.40159 3.3198 3.24019 3.1406 3.16133 3.27138 3.16569 3.29683 3.25314 3.19588 3.28851 3.34782 3.48672 3.43986 3.36144 3.41308 3.80204 4.06149 4.3056 4.53473 4.78809 4.64325 4.41251 4.3569 4.37298 4.39905 4.3388 4.21149 4.37853 4.55029 4.83414 4.94221 5.02571 4.96778 4.96422 4.89622 4.95963 5.06348 5.69765 6.67683 6.91043 5.79351
255.54 0.00025 3.9751 3.89089 3.65848 3.14205 3.1866 3.14526 3.18995 3.26943 3.34214 3.52645 3.52941 3.40151 3.27092 3.2098 3.32005 3.34048 3.42525 3.43992 3.36334 3.36372 3.35752 3.38447 3.55246 3.41464 3.26379 3.09471 3.00125 3.00077 2.93846 3.00262 3.11538 3.27 3.33255 3.38334 3.33108 3.32971 3.3003 3.24609 3.286 3.1639 3.14506 3.05861 2.96533 2.93106 2.99242 3.01815 3.15739 3.2044 3.26643 3.23095 3.21009 3.07826 2.981 2.92743 2.99341 3.10754 3.26198 3.28151 3.39059 3.3203 3.23444 3.13759 3.14891 3.27034 3.1691 3.31103 3.28205 3.20875 3.29541 3.35861 3.49825 3.46335 3.38243 3.39892 3.78539 4.04153 4.29638 4.51797 4.80634 4.69739 4.4434 4.3785 4.39155 4.42171 4.37156 4.23697 4.38957 4.54966 4.83561 4.94961 5.03178 4.98049 4.98078 4.91706 4.9912 5.05349 5.65727 6.63061 6.92178 5.85307
255.5425 0.00025 4.03771 3.90385 3.67763 3.14325 3.18268 3.1413 3.20374 3.24184 3.31533 3.53837 3.55029 3.43474 3.27549 3.20702 3.30302 3.32509 3.4194 3.43202 3.33181 3.32785 3.33282 3.37557 3.53978 3.44641 3.29121 3.103 2.97973 3.00728 2.95605 3.0003 3.11086 3.25171 3.3189 3.39094 3.33057 3.33324 3.30132 3.24997 3.29165 3.17281 3.14637 3.0541 2.9595 2.93182 2.98698 3.00062 3.13998 3.19378 3.25647 3.23195 3.21522 3.0801 3.00024 2.93064 2.99564 3.10109 3.2628 3.26991 3.379 3.32263 3.23191 3.13585 3.13889 3.2671 3.17322 3.32205 3.31471 3.22438 3.30235 3.36796 3.50732 3.48591 3.40758 3.38772 3.76804 4.01963 4.28521 4.4996 4.81652 4.75316 4.4792 4.40197 4.40833 4.44266 4.40335 4.26479 4.40223 4.54969 4.8368 4.9587 5.03924 4.99232 4.99761 4.93491 5.02665 5.05256 5.61976 6.58023 6.92189 5.9064
255.545 0.00025 4.11188 3.92038 3.69878 3.15189 3.18115 3.14102 3.2205 3.2154 3.29173 3.54304 3.5703 3.46366 3.28991 3.20614 3.2833 3.30777 3.40686 3.42326 3.30728 3.29754 3.30853 3.37149 3.51111 3.47561 3.31984 3.1169 2.96587 3.00662 2.97703 3.00155 3.10686 3.23469 3.30519 3.39526 3.32822 3.33669 3.30136 3.25475 3.29322 3.18094 3.14612 3.04912 2.95452 2.9323 2.98187 2.98586 3.12283 3.18407 3.24506 3.23197 3.21831 3.08111 3.0218 2.93744 3.00065 3.09535 3.26382 3.25838 3.36625 3.32676 3.23285 3.13619 3.13108 3.26186 3.17835 3.3294 3.35122 3.24327 3.31024 3.37579 3.51366 3.50631 3.43537 3.38042 3.74989 3.99625 4.27177 4.48149 4.81901 4.80909 4.52131 4.42891 4.42405 4.46177 4.43324 4.29429 4.41696 4.5512 4.83717 4.968 5.04704 5.00198 5.01456 4.95059 5.06247 5.05566 5.58359 6.5292 6.91409 5.95517
255.5475 0.00025 4.19684 3.938 3.71657 3.1698 3.18462 3.14364 3.23893 3.19103 3.27299 3.54006 3.59035 3.4876 3.31435 3.20818 3.26238 3.28976 3.39033 3.40935 3.28972 3.27412 3.28665 3.36801 3.47104 3.49925 3.34872 3.13413 2.96269 2.9986 2.99897 3.00717 3.1028 3.22007 3.29188 3.39493 3.32474 3.33964 3.30041 3.26029 3.29014 3.18787 3.14457 3.04425 2.95086 2.93207 2.9768 2.97325 3.10564 3.17431 3.2325 3.23115 3.2188 3.0808 3.04343 2.94816 3.0081 3.0898 3.26496 3.24671 3.35258 3.33255 3.2371 3.13911 3.12616 3.25476 3.18407 3.33215 3.39026 3.26597 3.32004 3.38294 3.51787 3.52426 3.46469 3.37832 3.73273 3.97297 4.25607 4.46417 4.81357 4.86178 4.56888 4.46019 4.43993 4.47961 4.46117 4.32581 4.43404 4.55445 4.83705 4.97704 5.05492 5.00974 5.0308 4.96466 5.09797 5.06564 5.55516 6.48306 6.90299 6.00129
255.55 0.00025 4.28991 3.96033 3.72961 3.19586 3.19534 3.14729 3.25776 3.17008 3.26126 3.53177 3.60954 3.50814 3.34701 3.2157 3.24216 3.27268 3.37318 3.38797 3.27759 3.25799 3.26938 3.36082 3.42536 3.51406 3.37782 3.1522 2.97149 2.98483 3.01923 3.01737 3.0986 3.20882 3.27959 3.3889 3.32087 3.34199 3.29881 3.26616 3.28251 3.19311 3.14184 3.04015 2.94908 2.93122 2.97184 2.96278 3.08913 3.16482 3.22058 3.2296 3.21699 3.07969 3.0637 2.96317 3.01787 3.08499 3.26678 3.23537 3.33882 3.34025 3.2443 3.14468 3.12411 3.24638 3.19058 3.32971 3.43034 3.29265 3.33211 3.38995 3.52094 3.54075 3.49547 3.38194 3.71686 3.95141 4.23889 4.44815 4.80019 4.9074 4.61921 4.49499 4.45575 4.49587 4.48657 4.35907 4.45327 4.55974 4.83629 4.98649 5.06507 5.01867 5.04877 4.97901 5.13382 5.08091 5.52773 6.43552 6.88548 6.0457
255.5525 0.00025 4.38782 3.98401 3.74191 3.22732 3.21363 3.15079 3.27401 3.1534 3.25791 3.52052 3.6241 3.528 3.38383 3.23208 3.22534 3.25748 3.35686 3.35965 3.26836 3.24881 3.25805 3.34641 3.37904 3.51737 3.40697 3.17 2.99133 2.96864 3.03494 3.03228 3.09484 3.20117 3.26867 3.37717 3.31703 3.34356 3.29698 3.27204 3.27092 3.19651 3.13829 3.03656 2.94865 2.92939 2.96732 2.95478 3.07389 3.15533 3.2096 3.22652 3.2137 3.07827 3.08132 2.98195 3.0296 3.08168 3.26905 3.22457 3.32504 3.34947 3.25345 3.15246 3.12464 3.23767 3.19806 3.32241 3.4698 3.32341 3.34618 3.39713 3.52313 3.55584 3.52734 3.3916 3.70107 3.93097 4.2205 4.43413 4.78031 4.94378 4.67135 4.53361 4.47179 4.51027 4.50914 4.39317 4.47423 4.56717 4.83528 4.99569 5.076 5.02665 5.06565 4.99155 5.16645 5.10047 5.50301 6.38944 6.86337 6.08838
255.555 0.00025 4.49312 4.00103 3.75955 3.2601 3.23859 3.15324 3.2855 3.14083 3.26289 3.50804 3.62929 3.54897 3.42027 3.26034 3.21331 3.24473 3.34097 3.32764 3.25975 3.24573 3.25269 3.32397 3.33571 3.50868 3.43548 3.18703 3.01852 2.95499 3.04427 3.05092 3.09214 3.19643 3.2587 3.3604 3.31293 3.34382 3.29488 3.27666 3.2565 3.19791 3.13427 3.03368 2.94921 2.92652 2.9627 2.94851 3.05955 3.14521 3.1998 3.22132 3.20923 3.07632 3.09426 3.00367 3.04294 3.07988 3.27093 3.21456 3.31062 3.35964 3.264 3.16408 3.12805 3.22925 3.20606 3.3111 3.50612 3.35807 3.3624 3.40609 3.5246 3.56886 3.55856 3.40675 3.68509 3.91105 4.20064 4.42255 4.75872 4.97325 4.72593 4.57807 4.4898 4.52362 4.52957 4.42791 4.49696 4.57667 4.83347 5.004 5.0878 5.03497 5.08114 5.00438 5.19804 5.12608 5.48116 6.34228 6.83425 6.12787
255.5575 0.00025 4.59562 4.01349 3.78742 3.29062 3.26733 3.15498 3.29131 3.1318 3.27444 3.49595 3.62223 3.57082 3.45255 3.30156 3.20687 3.23555 3.32351 3.29479 3.25068 3.24748 3.25128 3.29568 3.29753 3.48948 3.46203 3.20311 3.04806 2.94839 3.04634 3.07181 3.09098 3.19387 3.24942 3.34 3.3076 3.34222 3.29285 3.27884 3.24057 3.19712 3.12983 3.03166 2.95111 2.92352 2.95783 2.94358 3.0461 3.13438 3.19105 3.21357 3.20401 3.07387 3.10211 3.02745 3.05771 3.07958 3.27114 3.20644 3.29576 3.37054 3.27508 3.17892 3.13365 3.22096 3.2135 3.29679 3.53623 3.39626 3.38075 3.41733 3.52537 3.57991 3.5884 3.42703 3.6698 3.89204 4.18108 4.41437 4.73932 4.99801 4.78337 4.62882 4.51056 4.53621 4.54785 4.46259 4.52124 4.58851 4.83173 5.01189 5.10186 5.04511 5.09627 5.01839 5.22841 5.15669 5.46282 6.2962 6.79988 6.16451
255.56 0.00025 4.68413 4.01842 3.82576 3.31764 3.29636 3.15652 3.29107 3.12766 3.29055 3.48542 3.60384 3.59028 3.47864 3.35435 3.20741 3.23072 3.30297 3.26331 3.24211 3.25226 3.2506 3.26616 3.26374 3.46209 3.48485 3.21916 3.0757 2.95186 3.04176 3.09262 3.09139 3.19288 3.24021 3.31753 3.30039 3.339 3.29122 3.27782 3.22456 3.19441 3.12563 3.03065 2.95396 2.92086 2.95289 2.93966 3.03364 3.12299 3.18334 3.20351 3.19882 3.0716 3.10488 3.05167 3.07507 3.08186 3.26882 3.20069 3.28037 3.38149 3.28595 3.19624 3.14119 3.21284 3.2199 3.28104 3.55693 3.43727 3.40126 3.43083 3.52583 3.58991 3.61699 3.45214 3.65614 3.87378 4.16151 4.40745 4.72086 5.0156 4.84112 4.68512 4.53476 4.54831 4.56418 4.49658 4.54704 4.60228 4.82988 5.01831 5.11599 5.05556 5.10953 5.03273 5.25602 5.19242 5.44879 6.25204 6.76176 6.19784
255.5625 0.00025 4.74845 4.02719 3.87029 3.3415 3.32104 3.15853 3.28593 3.12995 3.30929 3.47636 3.57935 3.60219 3.49949 3.41332 3.21827 3.22998 3.27867 3.23494 3.23627 3.25792 3.24773 3.24018 3.2337 3.42945 3.50122 3.23589 3.09924 2.9658 3.03329 3.11143 3.09348 3.19251 3.23 3.2942 3.29051 3.33514 3.29021 3.2732 3.20946 3.18979 3.12159 3.03079 2.95729 2.91846 2.94798 2.93662 3.02234 3.11163 3.17658 3.19171 3.19458 3.07 3.10328 3.07378 3.09441 3.08683 3.26437 3.19743 3.26509 3.39232 3.29699 3.21535 3.15067 3.20541 3.22512 3.26525 3.56645 3.48007 3.42405 3.44679 3.52627 3.599 3.64371 3.48076 3.64345 3.85422 4.14021 4.39775 4.69985 5.02052 4.89292 4.74498 4.56242 4.56022 4.57879 4.52929 4.57423 4.61806 4.82874 5.02412 5.1319 5.06831 5.12182 5.04819 5.28125 5.23297 5.43931 6.20992 6.71937 6.22576
255.565 0.00025 4.78765 4.03934 3.91572 3.36505 3.33811 3.16289 3.27739 3.13927 3.32803 3.46943 3.55526 3.601 3.51833 3.46989 3.24343 3.2322 3.25245 3.21045 3.23404 3.26168 3.24058 3.22101 3.20708 3.39441 3.50807 3.25353 3.11818 2.98893 3.0243 3.1259 3.09757 3.19221 3.21882 3.27167 3.27797 3.33113 3.28937 3.2648 3.19542 3.18282 3.1173 3.03131 2.96095 2.91688 2.9436 2.93424 3.01242 3.10083 3.17025 3.1784 3.19112 3.06845 3.09806 3.09074 3.11447 3.09472 3.25887 3.1969 3.25126 3.40306 3.30788 3.23594 3.16265 3.19933 3.22886 3.2511 3.56445 3.5231 3.44903 3.46564 3.52731 3.60698 3.66801 3.512 3.63276 3.83387 4.1183 4.38497 4.67734 5.01265 4.93326 4.80458 4.59252 4.5716 4.59183 4.5604 4.60287 4.63644 4.82901 5.02876 5.14874 5.08308 5.13276 5.06369 5.30319 5.27701 5.4346 6.16944 6.67382 6.24909
255.5675 0.00025 4.8116 4.05493 3.95828 3.38732 3.34733 3.1702 3.26744 3.15577 3.34388 3.4659 3.53825 3.58335 3.53773 3.51493 3.28519 3.23691 3.22682 3.19074 3.2357 3.26096 3.22833 3.20835 3.18441 3.35919 3.50379 3.27167 3.13305 3.01801 3.01751 3.13412 3.10407 3.19032 3.20729 3.25122 3.26302 3.32709 3.28768 3.25328 3.18241 3.17366 3.11307 3.03191 2.96483 2.91622 2.94043 2.93199 3.00365 3.09121 3.16426 3.16442 3.18799 3.06689 3.09125 3.10164 3.13518 3.10608 3.25303 3.19754 3.2393 3.41273 3.3177 3.25761 3.17702 3.19504 3.23209 3.24031 3.55228 3.56451 3.47642 3.48824 3.52978 3.61477 3.69011 3.54424 3.62487 3.81381 4.09849 4.37248 4.6582 4.99987 4.96454 4.86375 4.62534 4.58268 4.60325 4.58949 4.63288 4.65639 4.8303 5.03172 5.1654 5.09976 5.14249 5.07951 5.32237 5.32301 5.43397 6.1313 6.62681 6.27012
255.57 0.00025 4.81694 4.0675 3.99584 3.40632 3.34816 3.17992 3.2575 3.17725 3.35587 3.46698 3.53189 3.54965 3.55684 3.54346 3.34322 3.24507 3.2038 3.17723 3.23959 3.2546 3.21188 3.20022 3.16747 3.32453 3.48844 3.28933 3.14519 3.04956 3.01497 3.13527 3.11289 3.18641 3.19631 3.23303 3.24626 3.32285 3.28453 3.24042 3.17032 3.16293 3.10921 3.0325 2.96905 2.91683 2.9385 2.92964 2.99574 3.08282 3.15803 3.1508 3.18528 3.06579 3.08428 3.10594 3.15505 3.12065 3.24742 3.19915 3.22973 3.42013 3.32591 3.27997 3.19298 3.19181 3.23472 3.23323 3.53176 3.6026 3.50637 3.51473 3.53405 3.62277 3.71054 3.57619 3.61934 3.7923 4.07944 4.35931 4.64273 4.98653 4.99009 4.92448 4.66253 4.5953 4.61376 4.61621 4.66323 4.67734 4.83317 5.03368 5.18228 5.11924 5.15203 5.09545 5.3393 5.37057 5.43807 6.09621 6.57923 6.29019
255.5725 0.00025 4.81761 4.07381 4.02682 3.41865 3.34259 3.18992 3.24784 3.20073 3.36653 3.47014 3.53662 3.50492 3.57201 3.55746 3.41337 3.25776 3.18512 3.17184 3.24336 3.24283 3.19251 3.19306 3.15833 3.2919 3.46372 3.30406 3.15508 3.08051 3.01794 3.13035 3.12336 3.18055 3.18617 3.21701 3.22893 3.31846 3.27929 3.22746 3.15849 3.15159 3.10567 3.03332 2.97366 2.91873 2.93802 2.92768 2.9888 3.07587 3.1512 3.13833 3.18302 3.06524 3.07743 3.10337 3.17145 3.1366 3.24208 3.20165 3.22344 3.4254 3.33237 3.3025 3.20979 3.18951 3.23671 3.22981 3.50511 3.63478 3.5374 3.54438 3.54032 3.63118 3.72891 3.60738 3.61724 3.76961 4.05999 4.34297 4.62736 4.97008 5.00689 4.98423 4.70362 4.61021 4.62395 4.64029 4.69317 4.69899 4.8375 5.03422 5.19809 5.14103 5.16179 5.11077 5.3541 5.4191 5.447 6.06293 6.52997 6.30801
255.575 0.00025 4.80999 4.0657 4.05325 3.4237 3.33241 3.1973 3.23921 3.2202 3.38023 3.4718 3.55029 3.45538 3.57964 3.56321 3.488 3.27668 3.17193 3.17515 3.24375 3.22674 3.17192 3.18324 3.15829 3.26314 3.43226 3.3139 3.16347 3.10929 3.02637 3.12168 3.13427 3.17357 3.17632 3.20248 3.21203 3.31365 3.27178 3.21518 3.14567 3.14019 3.10208 3.03405 2.97817 2.92232 2.93871 2.92618 2.98286 3.07084 3.14431 3.12761 3.18065 3.06544 3.07071 3.09503 3.1834 3.15349 3.23767 3.2042 3.22019 3.42812 3.3373 3.32422 3.22788 3.18957 3.23898 3.22995 3.47523 3.65937 3.56795 3.57537 3.54848 3.63991 3.74521 3.63726 3.61935 3.7477 4.04127 4.32457 4.61157 4.95131 5.01208 5.03865 4.74662 4.62675 4.63376 4.66194 4.72251 4.72138 4.84373 5.03392 5.21266 5.1655 5.17297 5.12575 5.36738 5.46722 5.46103 6.03007 6.47754 6.32069
255.5775 0.00025 4.81018 4.05023 4.07196 3.42242 3.32059 3.1989 3.23279 3.23192 3.40012 3.4721 3.56793 3.40593 3.57896 3.5674 3.55806 3.30344 3.16546 3.18655 3.23835 3.20735 3.15227 3.16839 3.16732 3.23988 3.39693 3.31774 3.17092 3.13519 3.03925 3.11146 3.14394 3.16692 3.16683 3.1889 3.19598 3.30725 3.26192 3.20411 3.13129 3.12933 3.09774 3.03464 2.98271 2.9278 2.94 2.92561 2.97782 3.0673 3.13699 3.11899 3.17802 3.06692 3.06428 3.08256 3.1898 3.16962 3.23408 3.2067 3.22011 3.42838 3.34185 3.34497 3.2469 3.19154 3.24193 3.23347 3.44535 3.67602 3.59707 3.60637 3.55875 3.649 3.75983 3.66485 3.62442 3.72581 4.02222 4.30485 4.59619 4.93456 5.00985 5.0873 4.79084 4.64521 4.64326 4.68119 4.75096 4.74439 4.85205 5.03319 5.22586 5.19243 5.18604 5.14066 5.37991 5.51459 5.47995 5.99662 6.42124 6.32773
255.58 0.00025 4.81969 4.03277 4.08195 3.41805 3.30833 3.19395 3.22956 3.23498 3.42566 3.47488 3.58272 3.36075 3.57115 3.57324 3.61767 3.33906 3.16567 3.20435 3.2271 3.18635 3.13433 3.14859 3.18325 3.22308 3.35985 3.31584 3.1778 3.158 3.05545 3.10096 3.14986 3.1616 3.15809 3.1761 3.18177 3.29829 3.24985 3.19466 3.11593 3.11973 3.09281 3.03518 2.98741 2.93521 2.9417 2.9262 2.97382 3.0647 3.12964 3.11264 3.17519 3.06977 3.05788 3.06787 3.1899 3.18306 3.23163 3.20927 3.22249 3.42632 3.34617 3.36337 3.26694 3.19513 3.24571 3.23915 3.41743 3.68493 3.62414 3.63634 3.57187 3.65845 3.77323 3.68942 3.63198 3.70506 4.00302 4.28443 4.57965 4.91925 5.00288 5.12995 4.83651 4.66631 4.65334 4.69851 4.77848 4.76817 4.86242 5.03235 5.23706 5.22125 5.20081 5.15504 5.39253 5.56094 5.5039 5.96335 6.36168 6.32986
255.5825 0.00025 4.84563 4.01663 4.08221 3.41208 3.29588 3.18309 3.22984 3.23128 3.45261 3.48264 3.59077 3.32144 3.55747 3.58137 3.66604 3.38311 3.17265 3.2274 3.21226 3.16524 3.11684 3.12691 3.20133 3.21258 3.3233 3.30916 3.18422 3.1774 3.0741 3.09138 3.15003 3.15804 3.15044 3.16368 3.17005 3.28679 3.2365 3.18653 3.10056 3.11128 3.08753 3.03533 2.99229 2.94451 2.94385 2.9284 2.97121 3.06216 3.12244 3.10802 3.17174 3.07368 3.05127 3.05233 3.18425 3.1926 3.23014 3.21154 3.22675 3.42133 3.35056 3.37879 3.28895 3.2015 3.25033 3.24633 3.39295 3.68674 3.64812 3.6636 3.58809 3.66827 3.78613 3.7116 3.64254 3.68705 3.98489 4.26501 4.56235 4.90365 4.98998 5.16306 4.88258 4.69 4.6643 4.71458 4.80491 4.7926 4.87505 5.03234 5.24624 5.25141 5.21795 5.16894 5.40561 5.60563 5.5332 5.93206 6.3017 6.32913
255.585 0.00025 4.88587 4.00707 4.07337 3.4045 3.2828 3.17088 3.23366 3.22633 3.47504 3.49483 3.59527 3.28872 3.53981 3.58931 3.70346 3.43402 3.18579 3.25268 3.19594 3.14447 3.09819 3.10809 3.21583 3.20737 3.28978 3.29944 3.19016 3.19231 3.09509 3.08432 3.14356 3.157 3.14405 3.15119 3.16071 3.27285 3.22263 3.17887 3.08626 3.10338 3.08196 3.03507 2.99755 2.95545 2.9464 2.9321 2.97034 3.05872 3.11549 3.10499 3.16826 3.07841 3.04481 3.03691 3.17341 3.19743 3.22903 3.21381 3.2322 3.4137 3.35569 3.39194 3.31256 3.21047 3.25612 3.25525 3.37357 3.6829 3.66877 3.68701 3.60702 3.67811 3.79841 3.73112 3.65527 3.6718 3.96651 4.24608 4.54543 4.88911 4.97426 5.18542 4.92791 4.71589 4.67603 4.729 4.82966 4.81728 4.88945 5.0334 5.25339 5.28264 5.238 5.18175 5.41886 5.64815 5.56867 5.90464 6.24285 6.32451
255.5875 0.00025 4.93495 4.00573 4.05505 3.39498 3.27082 3.16196 3.23867 3.22584 3.487 3.50888 3.60116 3.2623 3.51931 3.5945 3.73031 3.48989 3.20437 3.27687 3.18113 3.12465 3.07709 3.09475 3.22162 3.20559 3.2616 3.2878 3.19551 3.20134 3.11721 3.08016 3.13052 3.15875 3.13899 3.1394 3.1531 3.25628 3.20858 3.17089 3.0743 3.09556 3.07621 3.03427 3.00331 2.96786 2.94942 2.93697 2.97115 3.05359 3.10893 3.10337 3.16498 3.08341 3.03888 3.02196 3.15827 3.19704 3.22764 3.21646 3.23821 3.40444 3.36169 3.40319 3.33761 3.22102 3.26284 3.2658 3.36006 3.67499 3.68609 3.70705 3.6281 3.68771 3.81029 3.7474 3.66848 3.65894 3.94714 4.22646 4.52661 4.87415 4.95941 5.19929 4.97292 4.74396 4.68899 4.7421 4.85201 4.84149 4.90514 5.03592 5.25855 5.31429 5.26145 5.19344 5.43159 5.68757 5.60978 5.88064 6.184 6.31495
255.59 0.00025 4.98231 4.01118 4.03288 3.38307 3.26231 3.15843 3.24229 3.23316 3.48537 3.52106 3.6103 3.24377 3.49672 3.59598 3.74737 3.54875 3.22867 3.29704 3.17129 3.10626 3.05473 3.087 3.21712 3.2058 3.23981 3.27453 3.20092 3.20436 3.1385 3.07871 3.11233 3.16221 3.13526 3.1292 3.14653 3.23795 3.19519 3.16206 3.06537 3.08733 3.07057 3.03306 3.00948 2.98133 2.95308 2.94302 2.97392 3.0468 3.10286 3.10265 3.162 3.08749 3.03406 3.00818 3.13971 3.1918 3.22576 3.21982 3.24439 3.39531 3.36768 3.41233 3.36245 3.23294 3.27054 3.27757 3.35204 3.6639 3.69972 3.724 3.65077 3.69772 3.82175 3.76151 3.68171 3.64871 3.92671 4.20725 4.50626 4.85597 4.94353 5.20307 5.01613 4.77357 4.70351 4.75465 4.87264 4.86523 4.92221 5.04027 5.26169 5.34513 5.28841 5.20466 5.44411 5.72376 5.65517 5.85891 6.12447 6.30136
255.5925 0.00025 5.02603 4.02206 4.01003 3.36953 3.25643 3.1591 3.24271 3.24883 3.47058 3.52788 3.62142 3.23473 3.47224 3.5937 3.75515 3.60754 3.26034 3.3114 3.1685 3.08958 3.03379 3.08276 3.20396 3.20664 3.22383 3.25981 3.20713 3.20275 3.157 3.08052 3.09156 3.16503 3.13271 3.12087 3.14026 3.21865 3.18246 3.15195 3.05962 3.07846 3.06496 3.03142 3.01568 2.99541 2.95736 2.95009 2.97868 3.03878 3.09717 3.10285 3.15992 3.09039 3.03073 2.99599 3.11908 3.18233 3.22259 3.22411 3.24988 3.38731 3.37332 3.42035 3.38736 3.24603 3.27969 3.29 3.34864 3.65125 3.70976 3.73819 3.67317 3.70798 3.83254 3.77416 3.69525 3.64217 3.90612 4.1891 4.48582 4.83532 4.9285 5.19698 5.0548 4.80337 4.71925 4.7669 4.89166 4.88839 4.94032 5.04687 5.2633 5.37396 5.31852 5.21589 5.45688 5.75708 5.70479 5.84017 6.06536 6.28412