255.5025 0.00025 3.07806 2.75529 2.74021 2.91677 3.15861 3.1251 3.13918 3.2088 3.14963 2.96505 2.92852 2.87975 2.91472 2.8533 2.9534 3.08316 2.97438 2.87873 3.01824 3.16708 2.93367 2.7171 2.78587 2.69443 2.57578 2.61944 2.63999 2.62109 2.72026 2.87502 2.90499 2.90855 3.0066 3.08274 3.1602 3.13074 3.07596 3.16032 3.0564 2.82848 2.68749 2.62637 2.55931 2.62954 2.71919 2.73057 2.73287 2.70058 2.56677 2.49801 2.48123 2.53636 2.54674 2.65533 2.85838 2.81232 2.69572 2.58982 2.695 2.68344 2.69678 2.73586 2.79886 2.8093 2.93356 3.04142 3.08132 2.99478 2.94649 2.99216 2.99926 2.94726 3.03624 3.11026 3.38941 3.45931 3.44336 3.33839 3.35696 3.54378 3.51038 3.37074 3.54575 3.60005 3.70288 3.97336 3.95279 3.82554 4.30355 4.589 4.44118 4.53211 4.88135 5.06843 5.21697 4.83404 3.3216 3.15246 2.6741 2.70817
255.505 0.00025 3.04555 2.75405 2.74354 2.91282 3.17214 3.13437 3.1305 3.20193 3.1475 2.97209 2.92784 2.87911 2.91068 2.85294 2.94194 3.08802 2.98628 2.86786 2.98765 3.1516 2.96203 2.74395 2.78822 2.71721 2.58498 2.61828 2.63858 2.62083 2.71022 2.86398 2.90268 2.89846 2.99874 3.07758 3.15748 3.12465 3.06074 3.14654 3.04784 2.82509 2.68171 2.61738 2.55394 2.62511 2.7181 2.71978 2.72336 2.70864 2.57381 2.50013 2.47893 2.53409 2.55066 2.65176 2.84954 2.81048 2.69648 2.58671 2.69208 2.68018 2.69988 2.73638 2.80118 2.80597 2.92788 3.03878 3.08331 3.00268 2.96313 2.99598 3.00501 2.94523 3.03571 3.10044 3.38052 3.44919 3.46001 3.35418 3.35851 3.55414 3.5301 3.37472 3.5385 3.59481 3.69623 3.95465 3.95685 3.81701 4.27993 4.58121 4.46009 4.51441 4.87055 5.10235 5.19015 4.85683 3.31525 3.15698 2.69236 2.71143
255.5075 0.00025 3.02541 2.7528 2.74514 2.90888 3.18293 3.1429 3.12082 3.1958 3.14202 2.97943 2.92734 2.8793 2.90857 2.85321 2.93298 3.09181 3.00398 2.86373 2.96273 3.12892 2.98892 2.7756 2.79018 2.73781 2.5984 2.61989 2.63667 2.62069 2.70238 2.85366 2.90094 2.89099 2.99323 3.07519 3.15712 3.12102 3.04968 3.13501 3.03983 2.82425 2.67997 2.61162 2.5505 2.62144 2.71773 2.71028 2.71187 2.71369 2.58157 2.50271 2.47651 2.53186 2.5544 2.64866 2.83942 2.80823 2.69925 2.58534 2.688 2.67699 2.70209 2.7371 2.80306 2.80386 2.92157 3.03181 3.08313 3.0081 2.98007 2.9994 3.00984 2.94467 3.03452 3.09168 3.36957 3.43998 3.47196 3.37082 3.35899 3.56252 3.5511 3.38 3.53033 3.5867 3.68819 3.93312 3.95781 3.80744 4.25528 4.56654 4.47785 4.49654 4.85084 5.13003 5.16596 4.87375 3.31044 3.15681 2.71011 2.71362
255.51 0.00025 2.99932 2.75179 2.7458 2.90598 3.19039 3.15009 3.11149 3.19016 3.13499 2.9875 2.9273 2.87882 2.90785 2.85303 2.92586 3.09362 3.02482 2.86467 2.94246 3.09896 3.01258 2.80893 2.79371 2.75436 2.61464 2.62287 2.63396 2.62032 2.6967 2.84358 2.89879 2.88505 2.98811 3.0732 3.15634 3.11765 3.04129 3.12385 3.03068 2.82398 2.68063 2.60827 2.54749 2.61801 2.71709 2.7022 2.69926 2.71493 2.58955 2.50579 2.47423 2.52988 2.55819 2.64596 2.82854 2.80527 2.7035 2.58513 2.68316 2.67503 2.70348 2.73819 2.80444 2.80283 2.9155 3.0211 3.08142 3.0111 2.99571 3.00246 3.01264 2.94532 3.03397 3.08516 3.35674 3.43273 3.47961 3.38797 3.35886 3.56726 3.56971 3.38511 3.5213 3.57782 3.68051 3.91308 3.95729 3.79946 4.23148 4.54704 4.49554 4.48139 4.82754 5.15374 5.14787 4.88819 3.30799 3.15465 2.72785 2.71583
255.5125 0.00025 2.97625 2.75175 2.7453 2.90449 3.19395 3.15528 3.1039 3.18452 3.12775 2.99605 2.92776 2.87716 2.90826 2.85213 2.92013 3.09299 3.04713 2.86962 2.92647 3.06353 3.031 2.8426 2.79958 2.76666 2.63303 2.62709 2.63076 2.61959 2.69295 2.83393 2.89617 2.88038 2.98267 3.07056 3.1541 3.11414 3.03513 3.11219 3.01999 2.82335 2.68298 2.60711 2.54428 2.6149 2.71578 2.69552 2.6864 2.71208 2.59749 2.50944 2.47234 2.52824 2.56226 2.64345 2.81703 2.80131 2.7085 2.58495 2.67753 2.67407 2.70437 2.73943 2.805 2.80247 2.91048 3.00826 3.0785 3.012 3.01177 3.00723 3.01432 2.94701 3.03372 3.08089 3.34162 3.42718 3.48259 3.40512 3.35833 3.56758 3.58602 3.38936 3.51041 3.5682 3.67389 3.89451 3.95565 3.7942 4.20889 4.52341 4.51082 4.4667 4.79928 5.16962 5.13478 4.89964 3.30723 3.15031 2.74713 2.71833
255.515 0.00025 2.96983 2.7529 2.7437 2.90445 3.1935 3.15789 3.09901 3.17907 3.12077 3.00466 2.9285 2.87522 2.90993 2.85067 2.91546 3.08968 3.07006 2.87819 2.91467 3.02527 3.04183 2.87685 2.80702 2.77562 2.65277 2.63278 2.6278 2.61826 2.69055 2.82484 2.89312 2.87696 2.97671 3.06689 3.14999 3.1104 3.03085 3.09972 3.00821 2.82211 2.68662 2.60812 2.54093 2.61228 2.71382 2.69035 2.6742 2.70554 2.60502 2.51381 2.47115 2.52696 2.56666 2.64069 2.80497 2.79626 2.71377 2.58425 2.67076 2.67446 2.70459 2.74087 2.80517 2.80296 2.90711 2.99414 3.07471 3.01167 3.02902 3.01407 3.01622 2.95074 3.03426 3.07868 3.3246 3.42272 3.48149 3.42197 3.3585 3.56538 3.60147 3.39392 3.49846 3.55643 3.66649 3.87654 3.9529 3.7914 4.18738 4.49671 4.52278 4.45237 4.76596 5.17628 5.12452 4.90597 3.30869 3.14243 2.76769 2.72103
255.5175 0.00025 2.96854 2.75537 2.74073 2.90583 3.18889 3.1579 3.09761 3.17418 3.11408 3.01311 2.92936 2.87414 2.91328 2.84886 2.91136 3.0837 3.0931 2.89012 2.90666 2.98702 3.04327 2.91211 2.81412 2.78305 2.67263 2.63946 2.62534 2.61688 2.68941 2.81626 2.88967 2.87478 2.97008 3.06221 3.14399 3.10641 3.02821 3.08661 2.9958 2.82025 2.69116 2.61112 2.53775 2.60999 2.71117 2.68656 2.66326 2.69588 2.61157 2.51879 2.47078 2.52577 2.57115 2.63726 2.79271 2.79067 2.72005 2.58346 2.66256 2.67645 2.70411 2.74253 2.80531 2.80452 2.90534 2.9791 3.07024 3.01015 3.0463 3.02265 3.0182 2.95632 3.03587 3.07847 3.30597 3.41943 3.47822 3.43975 3.36086 3.56095 3.6157 3.39967 3.48649 3.54325 3.65629 3.85812 3.94711 3.7892 4.16563 4.46751 4.5318 4.4411 4.73108 5.17741 5.11878 4.90683 3.31354 3.13417 2.7865 2.72428
255.52 0.00025 2.96777 2.75873 2.73671 2.90851 3.18031 3.15571 3.09981 3.17052 3.10709 3.02159 2.93005 2.87427 2.91844 2.84687 2.90744 3.07517 3.1155 2.905 2.90177 2.95124 3.03467 2.94733 2.81958 2.79014 2.69085 2.64636 2.62354 2.61584 2.68935 2.80815 2.88563 2.87377 2.96289 3.05665 3.13618 3.10197 3.02705 3.07321 2.98293 2.81773 2.69628 2.6157 2.53534 2.60792 2.70768 2.68366 2.65378 2.68378 2.61652 2.52422 2.47139 2.52432 2.57544 2.63342 2.78048 2.78491 2.72784 2.58313 2.65352 2.67984 2.7036 2.74441 2.80555 2.80698 2.90445 2.96306 3.06465 3.00772 3.06347 3.03308 3.02087 2.96381 3.03843 3.08026 3.28686 3.41783 3.47481 3.45863 3.36503 3.55479 3.62905 3.4076 3.47605 3.53006 3.64409 3.83674 3.93566 3.78643 4.1435 4.43638 4.53727 4.43314 4.69584 5.17414 5.11949 4.9038 3.32234 3.12683 2.80426 2.7277
255.5225 0.00025 2.96842 2.76271 2.73256 2.91213 3.16838 3.15173 3.10524 3.16887 3.09949 3.03031 2.93083 2.87602 2.92496 2.84498 2.90383 3.06467 3.13643 2.92238 2.89959 2.92007 3.01683 2.97942 2.82387 2.79707 2.70699 2.65395 2.62271 2.61526 2.68989 2.80052 2.88097 2.8738 2.95515 3.04994 3.12673 3.09687 3.02703 3.05969 2.96965 2.81456 2.70146 2.62145 2.5343 2.60583 2.70322 2.68107 2.64599 2.67016 2.61939 2.52979 2.47284 2.52261 2.57958 2.62947 2.76814 2.779 2.73652 2.58327 2.64461 2.68413 2.70357 2.74641 2.80605 2.81049 2.90441 2.94671 3.05768 3.00553 3.081 3.04542 3.02445 2.97299 3.04276 3.08456 3.26874 3.41742 3.4722 3.47816 3.37161 3.54856 3.64156 3.41768 3.46778 3.51757 3.63159 3.81353 3.91913 3.78375 4.12277 4.40541 4.53899 4.42792 4.66047 5.16522 5.12607 4.89889 3.33399 3.11876 2.82551 2.73192
255.525 0.00025 2.97088 2.76671 2.72934 2.91637 3.15414 3.1457 3.11277 3.16949 3.09203 3.03939 2.93228 2.88023 2.93218 2.84305 2.90061 3.05296 3.15481 2.9419 2.8998 2.89478 2.99228 3.00444 2.82888 2.80331 2.72211 2.66265 2.62281 2.6154 2.69088 2.79351 2.87586 2.87487 2.94689 3.04175 3.11577 3.09103 3.02778 3.04642 2.95672 2.81116 2.70607 2.62777 2.53523 2.60369 2.69796 2.67848 2.64013 2.656 2.61989 2.53502 2.47516 2.52092 2.58361 2.62521 2.75538 2.77281 2.74538 2.58344 2.63568 2.68879 2.70417 2.74833 2.80678 2.8148 2.90467 2.93054 3.04935 3.0047 3.09867 3.05941 3.02825 2.98281 3.04908 3.09123 3.25197 3.41709 3.47109 3.49902 3.38197 3.54389 3.65292 3.42885 3.46123 3.50549 3.62057 3.79224 3.90151 3.78254 4.10371 4.37607 4.53886 4.42807 4.62751 5.15125 5.13815 4.89252 3.34591 3.10872 2.84946 2.73831
255.5275 0.00025 2.97411 2.77067 2.72765 2.92131 3.13907 3.13769 3.12152 3.17216 3.08571 3.04855 2.93538 2.88752 2.93956 2.84089 2.898 3.04102 3.16986 2.9633 2.90258 2.87616 2.96432 3.01884 2.83686 2.80797 2.73663 2.67165 2.6236 2.61671 2.69211 2.7872 2.87037 2.87724 2.93866 3.0322 3.10352 3.08451 3.02901 3.03391 2.94462 2.80787 2.70955 2.63404 2.53849 2.60161 2.69191 2.67564 2.63622 2.64199 2.61783 2.53954 2.47846 2.51913 2.58732 2.62081 2.74233 2.76674 2.7538 2.5829 2.62639 2.69307 2.70597 2.74994 2.80774 2.81952 2.90491 2.91512 3.03956 3.00368 3.11505 3.07438 3.03277 2.99329 3.05689 3.09956 3.23642 3.41613 3.47131 3.52042 3.39593 3.54187 3.66235 3.44036 3.4569 3.49438 3.61132 3.77343 3.88512 3.78314 4.08435 4.34706 4.53621 4.43287 4.59667 5.1311 5.15525 4.8844 3.35725 3.09702 2.87043 2.74346
255.53 0.00025 2.97775 2.7743 2.72795 2.92688 3.1241 3.12738 3.13106 3.17713 3.08156 3.05705 2.94102 2.89806 2.94678 2.83833 2.89604 3.02965 3.18051 2.98618 2.9078 2.86374 2.9355 3.02059 2.84861 2.81038 2.75058 2.67983 2.62467 2.61911 2.6935 2.78168 2.86435 2.88057 2.93076 3.02142 3.09027 3.07728 3.03025 3.02228 2.93327 2.80461 2.71156 2.63989 2.54417 2.59959 2.6851 2.67232 2.63399 2.62858 2.6133 2.54321 2.48269 2.51719 2.59049 2.61632 2.72932 2.76095 2.76124 2.58124 2.61747 2.69672 2.70877 2.75127 2.80906 2.82471 2.90522 2.9015 3.02762 3.00172 3.1296 3.08999 3.03833 3.00396 3.06561 3.10888 3.2222 3.41379 3.47188 3.53967 3.41134 3.54193 3.66902 3.45228 3.45552 3.48526 3.60269 3.75662 3.86863 3.78465 4.06552 4.31843 4.52959 4.44047 4.56671 5.10395 5.17568 4.87498 3.36963 3.08466 2.88866 2.7476
255.5325 0.00025 2.98142 2.77744 2.72983 2.93329 3.1103 3.11468 3.14121 3.18488 3.08064 3.06422 2.94936 2.91189 2.95365 2.83561 2.89454 3.01945 3.18621 3.01038 2.91546 2.85655 2.90766 3.01018 2.86198 2.81102 2.76422 2.68658 2.62611 2.62252 2.69489 2.77699 2.85759 2.88431 2.92335 3.0095 3.07604 3.06902 3.03109 3.01152 2.92287 2.80124 2.71212 2.64512 2.55203 2.59768 2.6776 2.66829 2.63312 2.61633 2.60663 2.54596 2.48777 2.51544 2.59307 2.61173 2.71658 2.75561 2.76832 2.5793 2.60966 2.69962 2.71274 2.7524 2.81062 2.83049 2.90572 2.88938 3.01247 2.99992 3.14289 3.10616 3.04461 3.01441 3.07484 3.11861 3.20907 3.40913 3.47227 3.55473 3.42596 3.54285 3.67426 3.46573 3.45718 3.47689 3.59355 3.74103 3.85125 3.78744 4.04994 4.29251 4.52083 4.45191 4.53879 5.07247 5.19902 4.86711 3.38523 3.07288 2.90744 2.75401
255.535 0.00025 2.98495 2.78002 2.73287 2.94051 3.09814 3.09993 3.15163 3.19545 3.08365 3.07022 2.96027 2.92882 2.95995 2.8331 2.89315 3.01073 3.18699 3.03537 2.92532 2.85392 2.88264 2.99019 2.8732 2.81164 2.77723 2.69194 2.62859 2.62685 2.69592 2.77297 2.85016 2.88811 2.91666 2.99655 3.0609 3.05976 3.03144 3.0021 2.91393 2.79778 2.71155 2.64947 2.56153 2.59608 2.66946 2.66352 2.63345 2.60579 2.59829 2.54766 2.49358 2.51404 2.59507 2.60733 2.70406 2.75074 2.77533 2.57772 2.60261 2.7011 2.7179 2.75371 2.81262 2.83658 2.90612 2.87813 2.99406 2.99806 3.15465 3.12292 3.0513 3.02489 3.08463 3.12842 3.19712 3.40236 3.47376 3.56656 3.4403 3.54471 3.67928 3.48028 3.45934 3.46719 3.58291 3.72551 3.83419 3.79184 4.03664 4.26725 4.50921 4.46568 4.51381 5.03675 5.22331 4.86197 3.40197 3.06003 2.92433 2.75971
255.5375 0.00025 2.98827 2.78203 2.73633 2.94866 3.08797 3.08383 3.16153 3.20857 3.09044 3.07557 2.97322 2.94907 2.96608 2.83135 2.89115 3.00354 3.18339 3.06058 2.93692 2.85564 2.86062 2.96367 2.8787 2.81371 2.78916 2.69663 2.63256 2.63218 2.69657 2.76963 2.8422 2.89132 2.91083 2.98293 3.04525 3.04944 3.03111 2.99423 2.90649 2.79397 2.71006 2.65261 2.57197 2.59519 2.66099 2.65818 2.6347 2.59731 2.58871 2.54809 2.49974 2.51304 2.59644 2.6032 2.69158 2.74633 2.78127 2.57623 2.59593 2.70052 2.72366 2.75545 2.81515 2.84291 2.90655 2.86888 2.97377 2.99615 3.16464 3.13953 3.05836 3.036 3.09501 3.13863 3.18703 3.3945 3.47741 3.57724 3.45673 3.54787 3.68273 3.49392 3.46027 3.45587 3.57081 3.70963 3.81649 3.79534 4.02464 4.24172 4.49388 4.48076 4.49155 4.99625 5.24542 4.85844 3.41761 3.04502 2.93868 2.76511
255.54 0.00025 2.99118 2.78365 2.7401 2.95779 3.07983 3.06733 3.16929 3.22395 3.10059 3.08064 2.98747 2.97292 2.97307 2.8308 2.88745 2.99757 3.17624 3.08526 2.94975 2.8613 2.84205 2.93365 2.87706 2.8169 2.7993 2.70107 2.63765 2.63866 2.69708 2.76707 2.83365 2.89292 2.90585 2.96937 3.02947 3.03797 3.02951 2.98744 2.90003 2.7896 2.70793 2.65465 2.58264 2.59534 2.65247 2.65233 2.63628 2.59081 2.57817 2.5472 2.50585 2.51241 2.59689 2.59912 2.67933 2.74268 2.7854 2.57497 2.59003 2.69756 2.72954 2.75726 2.81801 2.84959 2.90737 2.86127 2.95197 2.99405 3.17251 3.15529 3.06655 3.04797 3.10566 3.1487 3.17867 3.38542 3.48243 3.58695 3.47542 3.55248 3.68326 3.50543 3.46173 3.44462 3.5579 3.69346 3.79669 3.79706 4.01518 4.21817 4.47676 4.4968 4.47123 4.95222 5.2643 4.85738 3.4343 3.03049 2.95344 2.77219
255.5425 0.00025 2.99363 2.78452 2.74358 2.96782 3.07372 3.05118 3.17339 3.24175 3.11368 3.08562 3.00245 3.0001 2.98223 2.83163 2.88128 2.99221 3.16661 3.1086 2.96334 2.87074 2.82773 2.90192 2.86896 2.81933 2.80729 2.70554 2.64395 2.64649 2.69749 2.76499 2.82471 2.89249 2.90186 2.95647 3.01364 3.02517 3.02608 2.98159 2.8944 2.78491 2.70548 2.65581 2.59279 2.59671 2.64403 2.64584 2.63773 2.58621 2.56714 2.54522 2.51159 2.51216 2.59642 2.59527 2.66785 2.73979 2.78824 2.57472 2.58526 2.69239 2.73553 2.75975 2.82127 2.85622 2.90873 2.85437 2.9286 2.99154 3.17822 3.17063 3.07593 3.06098 3.11675 3.15855 3.17174 3.37481 3.4875 3.59492 3.49504 3.55879 3.68149 3.51483 3.46459 3.43437 3.54544 3.67821 3.77674 3.79865 4.00777 4.1958 4.45753 4.51244 4.45376 4.90679 5.27996 4.86127 3.45234 3.01629 2.96614 2.77808
255.545 0.00025 2.99571 2.78454 2.74672 2.97874 3.06944 3.03603 3.17285 3.26201 3.1297 3.09079 3.01756 3.02934 2.9947 2.83405 2.87228 2.98685 3.15568 3.12974 2.97705 2.88326 2.81768 2.86951 2.85713 2.81841 2.81306 2.71046 2.65162 2.6555 2.69766 2.763 2.81594 2.8901 2.89895 2.94443 2.99776 3.01112 3.02069 2.977 2.88962 2.78053 2.70296 2.6563 2.60179 2.59929 2.6357 2.63864 2.63867 2.5835 2.5562 2.54257 2.51663 2.51222 2.59525 2.59188 2.65732 2.73744 2.78958 2.57532 2.58117 2.6851 2.74128 2.76387 2.82538 2.86292 2.911 2.84831 2.90476 2.98882 3.18235 3.18495 3.08578 3.07538 3.12873 3.16892 3.16663 3.36306 3.49215 3.60171 3.51507 3.56675 3.67817 3.52202 3.46814 3.42456 3.53351 3.66524 3.75778 3.80029 4.00186 4.17421 4.43598 4.52717 4.44026 4.86092 5.29115 4.87042 3.47107 3.00208 2.97724 2.78438
255.5475 0.00025 2.99715 2.78322 2.74924 2.99056 3.06712 3.02231 3.16731 3.28372 3.14859 3.09675 3.03274 3.05899 3.01124 2.83819 2.86076 2.98103 3.14444 3.14782 2.99021 2.89798 2.81225 2.83714 2.8442 2.81215 2.81597 2.71573 2.66017 2.66545 2.69748 2.76101 2.80763 2.88557 2.89688 2.93369 2.9822 2.99595 3.01326 2.97354 2.88518 2.77697 2.7006 2.6563 2.60922 2.60291 2.62775 2.63097 2.63893 2.58257 2.54587 2.53942 2.52067 2.51255 2.5936 2.58883 2.64791 2.73548 2.78866 2.57635 2.57794 2.67607 2.74656 2.76986 2.83078 2.87034 2.91403 2.84213 2.88115 2.98543 3.18475 3.19793 3.09658 3.09149 3.14142 3.17977 3.16376 3.35089 3.4958 3.60746 3.53458 3.57539 3.67287 3.52682 3.47356 3.41581 3.52127 3.65365 3.73904 3.80156 3.99823 4.15412 4.4134 4.54093 4.43073 4.8147 5.2953 4.8846 3.49131 2.98934 2.98902 2.79209
255.55 0.00025 2.99772 2.78034 2.75113 3.00328 3.06703 3.01025 3.1573 3.30514 3.17045 3.10452 3.04771 3.08758 3.03234 2.84457 2.84755 2.97424 3.13351 3.16206 3.00254 2.91404 2.8115 2.80583 2.83185 2.80039 2.81508 2.72149 2.66914 2.67643 2.69713 2.75879 2.79936 2.87831 2.89535 2.92464 2.9674 2.97998 3.00366 2.97057 2.88044 2.77445 2.6985 2.65603 2.61482 2.60713 2.62057 2.62312 2.6384 2.58323 2.53661 2.53591 2.52361 2.51316 2.59139 2.58585 2.63971 2.73384 2.78553 2.57831 2.57601 2.66604 2.75034 2.77726 2.83755 2.87832 2.91739 2.83563 2.85908 2.98147 3.18551 3.21014 3.10867 3.10848 3.1547 3.19044 3.16301 3.33919 3.49906 3.6118 3.5521 3.58429 3.66687 3.52977 3.48121 3.40886 3.50931 3.64294 3.72047 3.8025 3.99748 4.1357 4.39005 4.55232 4.42477 4.76885 5.2913 4.90391 3.51309 2.97717 2.99958 2.79959
255.5525 0.00025 2.99729 2.77572 2.75195 3.01642 3.06894 3.00012 3.14384 3.32394 3.19485 3.11552 3.06238 3.11408 3.05763 2.85391 2.83363 2.96608 3.12318 3.17243 3.01421 2.93006 2.81511 2.77733 2.82007 2.78449 2.80953 2.72813 2.67802 2.68841 2.69695 2.75595 2.79106 2.86865 2.89426 2.9174 2.9539 2.96376 2.99191 2.96748 2.87539 2.77292 2.69652 2.6556 2.61861 2.61146 2.61454 2.61515 2.63713 2.58528 2.52877 2.53221 2.52551 2.51395 2.58863 2.58264 2.63285 2.73223 2.78054 2.58131 2.57502 2.65521 2.75225 2.78542 2.84567 2.88648 2.92108 2.82895 2.8393 2.97663 3.18489 3.22112 3.12161 3.12595 3.16832 3.20068 3.16348 3.32827 3.50245 3.61606 3.56767 3.59418 3.66234 3.53206 3.48946 3.40292 3.49742 3.63362 3.70253 3.8028 3.99925 4.11918 4.36682 4.5614 4.42227 4.72389 5.2788 4.92732 3.53623 2.96562 3.00909 2.80759
255.555 0.00025 2.99569 2.76957 2.75162 3.02942 3.07232 2.99217 3.12863 3.33834 3.22068 3.13077 3.07686 3.13815 3.086 2.86682 2.82006 2.95622 3.11319 3.17908 3.02531 2.9444 2.82277 2.75405 2.80806 2.76664 2.79813 2.73586 2.68641 2.70143 2.69745 2.75226 2.78326 2.85736 2.89355 2.91222 2.94209 2.94778 2.97839 2.96398 2.87045 2.77226 2.69471 2.65516 2.62073 2.61524 2.60971 2.60701 2.63511 2.58823 2.52256 2.52851 2.52639 2.51478 2.58548 2.57929 2.62719 2.73022 2.77384 2.5844 2.57406 2.64344 2.75204 2.79425 2.85477 2.8953 2.92513 2.82133 2.82139 2.97011 3.18237 3.22986 3.13472 3.14486 3.18305 3.21106 3.16504 3.31817 3.50558 3.62146 3.58282 3.6064 3.66015 3.53421 3.49801 3.39788 3.48494 3.62506 3.68547 3.8021 4.00308 4.10366 4.3439 4.56786 4.42348 4.68056 5.25783 4.95461 3.56116 2.9551 3.01819 2.81615
255.5575 0.00025 2.99299 2.76199 2.75033 3.04122 3.07668 2.98657 3.11347 3.34702 3.24646 3.15074 3.09183 3.16009 3.11578 2.88367 2.80823 2.94453 3.10271 3.18257 3.03629 2.95526 2.83364 2.73796 2.79558 2.74881 2.78013 2.74408 2.69411 2.71516 2.69894 2.7481 2.77584 2.8447 2.89303 2.90931 2.93198 2.93219 2.96325 2.95932 2.86598 2.77229 2.69335 2.6549 2.62135 2.61794 2.6061 2.59896 2.63229 2.5916 2.51808 2.52484 2.52628 2.51551 2.58211 2.57609 2.62251 2.72779 2.76602 2.58747 2.57344 2.63129 2.74959 2.80388 2.8652 2.90457 2.92903 2.81287 2.80573 2.96108 3.17759 3.23625 3.14855 3.16501 3.1996 3.22161 3.16818 3.30953 3.50764 3.62785 3.59765 3.62061 3.65991 3.53473 3.50706 3.39497 3.4723 3.61709 3.66909 3.8006 4.00895 4.08883 4.32008 4.57122 4.42888 4.63955 5.22863 4.98542 3.58875 2.94583 3.02672 2.82497
255.56 0.00025 2.98899 2.75323 2.74855 3.05114 3.08149 2.98342 3.09982 3.34945 3.27042 3.17508 3.10831 3.18014 3.14525 2.90449 2.79953 2.93123 3.09051 3.18329 3.04744 2.96137 2.84675 2.7295 2.78317 2.73223 2.75575 2.75166 2.70105 2.72861 2.70173 2.74348 2.76858 2.83113 2.89229 2.90832 2.92359 2.91726 2.94644 2.95247 2.86235 2.77287 2.69269 2.65491 2.62061 2.61908 2.60372 2.59139 2.62866 2.59499 2.51506 2.52109 2.52527 2.5161 2.5785 2.5732 2.61902 2.72516 2.75756 2.59044 2.57334 2.61957 2.74506 2.81338 2.87673 2.91408 2.93253 2.80477 2.79345 2.95 3.17092 3.2405 3.16319 3.18541 3.21722 3.23212 3.17284 3.30302 3.50948 3.63533 3.61106 3.63432 3.6609 3.5336 3.51581 3.39407 3.45929 3.60945 3.65355 3.79777 4.01709 4.07663 4.29624 4.57131 4.43823 4.60162 5.19207 5.01879 3.6192 2.93759 3.03446 2.83403
255.5625 0.00025 2.98368 2.74371 2.74636 3.0589 3.08623 2.98304 3.08854 3.34567 3.29072 3.20289 3.12776 3.19844 3.17289 2.92893 2.79508 2.91692 3.07608 3.18144 3.05914 2.9624 2.86122 2.72762 2.7719 2.71751 2.72623 2.75661 2.70761 2.74123 2.70587 2.73859 2.76163 2.8171 2.89101 2.90907 2.91705 2.90318 2.92793 2.94288 2.85958 2.7736 2.69281 2.65509 2.61849 2.61836 2.60216 2.58442 2.62424 2.59806 2.51345 2.51734 2.5237 2.51632 2.57456 2.57086 2.61669 2.72219 2.74847 2.59284 2.57355 2.60833 2.73849 2.82188 2.88913 2.9248 2.9361 2.79827 2.78443 2.93762 3.16388 3.24287 3.17819 3.20658 3.23579 3.243 3.17864 3.29857 3.51043 3.6437 3.62286 3.64644 3.6626 3.53218 3.52362 3.39428 3.44566 3.60187 3.63837 3.79328 4.02722 4.06806 4.2736 4.56781 4.4512 4.56744 5.14917 5.05286 3.65274 2.93028 3.04149 2.84315
255.565 0.00025 2.97696 2.73351 2.74393 3.06468 3.0902 2.98591 3.0797 3.33654 3.30539 3.23297 3.15192 3.21515 3.19762 2.95688 2.79555 2.90236 3.05967 3.17677 3.07157 2.95904 2.87646 2.73044 2.7627 2.70495 2.69407 2.75706 2.71457 2.75234 2.71104 2.73384 2.75467 2.80314 2.88899 2.91155 2.91223 2.88991 2.90794 2.93036 2.85709 2.77399 2.69369 2.65541 2.61521 2.61593 2.60077 2.57812 2.6191 2.60079 2.51324 2.51382 2.52193 2.51593 2.57043 2.56907 2.61471 2.71842 2.73933 2.59506 2.57413 2.59768 2.73052 2.82942 2.90264 2.93675 2.93945 2.79347 2.77697 2.92318 3.15662 3.24303 3.19339 3.2288 3.25624 3.25441 3.18527 3.2956 3.50982 3.65218 3.63362 3.65813 3.6659 3.53014 3.53044 3.39613 3.43208 3.5945 3.62362 3.7871 4.03836 4.0615 4.25246 4.56143 4.46726 4.5373 5.10028 5.08554 3.69011 2.92422 3.04792 2.85251
255.5675 0.00025 2.96897 2.72262 2.74114 3.06803 3.09286 2.99236 3.07221 3.3239 3.313 3.26351 3.18239 3.231 3.21847 2.98809 2.80108 2.88847 3.04182 3.16897 3.08459 2.95239 2.89142 2.73627 2.75623 2.69416 2.66224 2.75136 2.72254 2.76143 2.71674 2.72937 2.74731 2.78955 2.88589 2.91541 2.90886 2.87726 2.88674 2.9151 2.85451 2.77386 2.69529 2.656 2.6114 2.61227 2.59928 2.57285 2.61352 2.6032 2.51431 2.51054 2.5202 2.51489 2.56623 2.56782 2.61282 2.71385 2.73054 2.59686 2.57478 2.58787 2.72145 2.83556 2.91649 2.94949 2.94227 2.79075 2.76983 2.90651 3.14867 3.24033 3.20829 3.25119 3.27776 3.26622 3.19261 3.29449 3.5082 3.66064 3.64365 3.66964 3.67129 3.52745 3.53597 3.39988 3.41925 3.58692 3.60958 3.77954 4.05026 4.05721 4.23232 4.55208 4.48557 4.51101 5.04648 5.11542 3.73178 2.91933 3.05377 2.86213
255.57 0.00025 2.95983 2.71137 2.73811 3.0681 3.09387 3.00237 3.06511 3.31019 3.31287 3.29179 3.2197 3.24701 3.23497 3.022 2.81167 2.87636 3.02297 3.1581 3.0975 2.94356 2.90445 2.74407 2.75294 2.6843 2.63337 2.73847 2.73101 2.76868 2.72259 2.72554 2.73986 2.77669 2.8817 2.92019 2.90669 2.86499 2.86476 2.89774 2.85144 2.77327 2.69768 2.6567 2.60724 2.60769 2.59739 2.56893 2.60766 2.60499 2.51618 2.50742 2.51863 2.51311 2.56205 2.56719 2.61137 2.70834 2.72169 2.59777 2.57503 2.57893 2.71103 2.83967 2.93 2.96373 2.94516 2.79104 2.76256 2.88882 3.14082 3.23532 3.22258 3.27362 3.29931 3.27829 3.20039 3.29547 3.5062 3.66957 3.6536 3.67952 3.67716 3.52526 3.5403 3.40441 3.40642 3.57873 3.59631 3.77138 4.06323 4.05667 4.21342 4.5396 4.50527 4.4886 4.98894 5.14086 3.77816 2.91579 3.05878 2.87184
255.5725 0.00025 2.94981 2.70001 2.73478 3.0643 3.09312 3.01552 3.05795 3.2974 3.30585 3.31491 3.26305 3.26514 3.24728 3.05757 2.82728 2.86693 3.00348 3.14456 3.10908 2.93412 2.91352 2.7535 2.75288 2.67535 2.60884 2.71855 2.73876 2.7747 2.72817 2.7231 2.73258 2.7647 2.87647 2.92536 2.90528 2.85294 2.84262 2.87899 2.84719 2.77228 2.70092 2.65732 2.60269 2.60205 2.59462 2.56639 2.60174 2.60599 2.51854 2.50439 2.51729 2.51061 2.55811 2.56714 2.61033 2.7021 2.71329 2.59824 2.57504 2.5709 2.70001 2.84219 2.94286 2.97937 2.94841 2.79474 2.75428 2.87097 3.13351 3.2286 3.23599 3.29622 3.32151 3.29133 3.2086 3.298 3.50404 3.67864 3.66412 3.68799 3.68318 3.52404 3.54386 3.40922 3.39405 3.57041 3.58423 3.76274 4.07645 4.0595 4.19631 4.52477 4.52605 4.47016 4.92855 5.15971 3.82934 2.91394 3.06341 2.88196
255.575 0.00025 2.93892 2.689 2.7312 3.057 3.09074 3.03099 3.05116 3.28639 3.29379 3.33048 3.30965 3.28754 3.25609 3.09319 2.84773 2.86084 2.98393 3.12898 3.1183 2.92616 2.91723 2.76386 2.75633 2.66743 2.58894 2.6933 2.74413 2.7797 2.7331 2.72209 2.72539 2.75359 2.87036 2.93074 2.90461 2.84111 2.82096 2.85944 2.8412 2.77095 2.70503 2.65801 2.59813 2.59529 2.59059 2.56489 2.59616 2.60648 2.52122 2.50138 2.51628 2.50751 2.55443 2.56745 2.60942 2.69537 2.70557 2.59864 2.5747 2.56394 2.6889 2.84334 2.95396 2.99566 2.9521 2.80143 2.74426 2.85356 3.12638 3.21973 3.24824 3.31914 3.34429 3.3062 3.21799 3.30226 3.50145 3.68643 3.67478 3.69577 3.69048 3.52435 3.54693 3.41468 3.38358 3.56289 3.5733 3.75325 4.08863 4.06543 4.18143 4.50831 4.54744 4.45573 4.86641 5.17097 3.88535 2.91402 3.06743 2.89198
255.5775 0.00025 2.9274 2.67874 2.72719 3.04723 3.0869 3.04797 3.04536 3.27683 3.27863 3.33733 3.35575 3.31575 3.26287 3.12715 2.87282 2.85853 2.96475 3.11186 3.12408 2.92112 2.91485 2.77438 2.7633 2.66098 2.57316 2.66535 2.74552 2.78367 2.73693 2.72217 2.71862 2.74365 2.86381 2.93619 2.90443 2.82939 2.80028 2.83964 2.83313 2.76909 2.70976 2.65895 2.59406 2.58765 2.58533 2.56382 2.59108 2.60642 2.52401 2.49845 2.51566 2.50394 2.5509 2.56806 2.60861 2.68786 2.69779 2.59865 2.57395 2.55768 2.6774 2.84304 2.96296 3.01219 2.95643 2.8108 2.73277 2.83711 3.11919 3.20908 3.25901 3.3422 3.36713 3.32246 3.22835 3.30847 3.49867 3.69308 3.68633 3.70211 3.69769 3.52614 3.54963 3.42085 3.37518 3.5558 3.56308 3.74298 4.09929 4.07458 4.16859 4.48997 4.56861 4.44592 4.80419 5.1742 3.94625 2.91629 3.07099 2.90182
255.58 0.00025 2.91558 2.66981 2.723 3.03612 3.0819 3.06508 3.04118 3.26802 3.26161 3.33613 3.39765 3.35003 3.26935 3.15788 2.90195 2.86027 2.94666 3.0936 3.12544 2.9197 2.90672 2.78438 2.77291 2.65703 2.56037 2.63712 2.74165 2.7867 2.73998 2.7232 2.71295 2.73509 2.85717 2.9411 2.90411 2.81756 2.78069 2.8198 2.82271 2.76622 2.7146 2.65992 2.59042 2.5793 2.57923 2.56281 2.58663 2.60571 2.52673 2.4957 2.51551 2.50028 2.54744 2.56893 2.60818 2.6795 2.68997 2.59878 2.57301 2.55215 2.66572 2.84155 2.96965 3.0282 2.96185 2.82251 2.72026 2.82217 3.11152 3.19715 3.26843 3.36559 3.38981 3.33981 3.23939 3.31598 3.4961 3.69899 3.69965 3.70711 3.70396 3.52895 3.55232 3.42692 3.368 3.54823 3.55317 3.7321 4.10799 4.08693 4.15744 4.46893 4.588 4.44084 4.74292 5.16844 4.01124 2.921 3.07397 2.91164
255.5825 0.00025 2.90363 2.66255 2.71857 3.02438 3.0761 3.08124 3.03943 3.25894 3.2435 3.32795 3.43277 3.38944 3.27751 3.18431 2.93403 2.86637 2.93051 3.07441 3.12218 2.92192 2.89392 2.79298 2.78375 2.65668 2.54927 2.61092 2.7321 2.78868 2.74287 2.72498 2.70853 2.72778 2.85043 2.94479 2.90305 2.80559 2.76233 2.80013 2.80995 2.76195 2.71921 2.66078 2.5871 2.57023 2.57244 2.56165 2.5831 2.60443 2.52918 2.49311 2.5157 2.49693 2.54412 2.57001 2.60793 2.67072 2.68188 2.5989 2.57201 2.54719 2.65415 2.83899 2.97391 3.04313 2.96912 2.83597 2.70775 2.80933 3.10278 3.1847 3.27644 3.38885 3.41184 3.35835 3.25146 3.32484 3.49386 3.70351 3.71509 3.7119 3.71022 3.53295 3.55469 3.43217 3.36183 3.54046 3.54376 3.72039 4.11369 4.10179 4.14836 4.44596 4.60472 4.44025 4.68321 5.15292 4.0794 2.92872 3.0766 2.92165
255.585 0.00025 2.892 2.65717 2.71386 3.01301 3.06971 3.09538 3.04047 3.24859 3.22515 3.31421 3.45988 3.43197 3.28892 3.20581 2.96757 2.8771 2.91693 3.05476 3.11471 2.92734 2.87787 2.79988 2.7945 2.66064 2.53923 2.58854 2.71718 2.78876 2.74547 2.72703 2.70518 2.72161 2.84372 2.94687 2.90103 2.79387 2.74531 2.78091 2.79508 2.7561 2.72361 2.66176 2.58425 2.56067 2.56489 2.55998 2.58079 2.60276 2.53107 2.49061 2.51611 2.49404 2.54081 2.5713 2.60766 2.66146 2.6735 2.59904 2.57108 2.54257 2.64267 2.83557 2.97605 3.05616 2.97863 2.85105 2.6963 2.79781 3.09228 3.17223 3.28254 3.41169 3.43321 3.37816 3.26494 3.33536 3.49203 3.70631 3.73224 3.7166 3.71641 3.53791 3.5566 3.43673 3.35678 3.53275 3.53494 3.70783 4.11533 4.11814 4.14077 4.42203 4.61932 4.44414 4.62538 5.1272 4.14925 2.93985 3.07903 2.93167
255.5875 0.00025 2.88065 2.65349 2.70885 3.00131 3.06313 3.10649 3.04412 3.23631 3.20695 3.29628 3.47836 3.4751 3.30474 3.22261 3.0008 2.89258 2.90662 3.03525 3.10365 2.93491 2.86017 2.80456 2.80386 2.66939 2.53003 2.57036 2.69782 2.78595 2.74778 2.72947 2.70272 2.71693 2.83743 2.94698 2.89801 2.78274 2.72974 2.76228 2.7786 2.74869 2.72767 2.66307 2.58198 2.55098 2.55659 2.55745 2.57957 2.60085 2.53224 2.48828 2.51666 2.49182 2.53723 2.57291 2.6075 2.65169 2.66491 2.59943 2.57043 2.53829 2.63152 2.83127 2.97638 3.06645 2.99074 2.86741 2.68677 2.78744 3.07963 3.16032 3.28683 3.43402 3.45389 3.39904 3.27999 3.34739 3.49058 3.70759 3.75053 3.72105 3.72207 3.54348 3.55914 3.44105 3.35323 3.52548 3.52708 3.69513 4.11334 4.13594 4.13495 4.39794 4.6324 4.45277 4.57025 5.09184 4.21955 2.95483 3.08117 2.94145
255.59 0.00025 2.86974 2.65156 2.704 2.98814 3.05636 3.11394 3.05006 3.22213 3.18914 3.2758 3.48822 3.51556 3.32534 3.23549 3.03223 2.91242 2.90011 3.01649 3.08965 2.9431 2.84225 2.80576 2.81095 2.68283 2.5216 2.55625 2.67581 2.77971 2.75007 2.73258 2.7011 2.7141 2.83167 2.94461 2.89401 2.77244 2.71568 2.74434 2.76087 2.7396 2.73085 2.66467 2.58015 2.54136 2.54757 2.55413 2.57918 2.59879 2.53259 2.48612 2.51713 2.49054 2.53352 2.57489 2.60745 2.64154 2.65612 2.59948 2.57005 2.53427 2.6205 2.82607 2.97511 3.07347 3.0055 2.88517 2.68008 2.77817 3.06445 3.14956 3.28928 3.45552 3.47344 3.42009 3.29653 3.36086 3.48942 3.70726 3.76975 3.72471 3.72648 3.54958 3.56237 3.44507 3.35092 3.51907 3.52131 3.68336 4.10862 4.15519 4.13194 4.37484 4.64325 4.46602 4.51877 5.04826 4.28934 2.97425 3.08297 2.95104
255.5925 0.00025 2.85932 2.65122 2.69934 2.97354 3.0496 3.11749 3.05759 3.20624 3.17183 3.25422 3.48944 3.54986 3.35092 3.24576 3.06104 2.93518 2.89858 2.99918 3.07369 2.95028 2.82591 2.80238 2.81542 2.70035 2.51477 2.54554 2.65261 2.76939 2.7521 2.73642 2.69991 2.71302 2.82636 2.93951 2.88909 2.76307 2.70305 2.72709 2.74231 2.72889 2.73261 2.66655 2.57864 2.53191 2.53775 2.55032 2.57954 2.59682 2.53205 2.48421 2.51742 2.4902 2.52969 2.57713 2.60713 2.63109 2.64732 2.59909 2.57061 2.53048 2.60997 2.82032 2.97227 3.07699 3.02189 2.90408 2.67637 2.76954 3.04656 3.14049 3.28993 3.47612 3.49189 3.44085 3.31496 3.3761 3.48892 3.70533 3.7896 3.72756 3.72891 3.55534 3.5657 3.44871 3.34955 3.51345 3.51726 3.67244 4.10123 4.17561 4.13203 4.35285 4.65093 4.4835 4.47144 4.99783 4.35706 2.99879 3.08434 2.96034