255.5025 0.00025 -207.951 -207.964 -207.996 -208.017 -208.01 -207.995 -207.974 -207.951 -207.923 -207.895 -207.873 -207.848 -207.819 -207.785 -207.756 -207.728 -207.7 -207.672 -207.656 -207.643 -207.626 -207.609 -207.59 -207.572 -207.561 -207.544 -207.527 -207.508 -207.482 -207.452 -207.428 -207.4 -207.367 -207.342 -207.312 -207.288 -207.264 -207.242 -207.223 -207.207 -207.195 -207.179 -207.164 -207.151 -207.138 -207.128 -207.12 -207.111 -207.103 -207.095 -207.088 -207.085 -207.08 -207.079 -207.076 -207.074 -207.075 -207.071 -207.059 -207.051 -207.043 -207.034 -207.023 -207.011 -207.001 -206.991 -206.98 -206.97 -206.961 -206.951 -206.938 -206.927 -206.923 -206.919 -206.91 -206.904 -206.9 -206.898 -206.894 -206.891 -206.886 -206.883 -206.879 -206.877 -206.875 -206.874 -206.87 -206.865 -206.862 -206.857 -206.854 -206.849 -206.846 -206.843 -206.84 -206.837 -206.835 -206.831 -206.829 -206.824
255.505 0.00025 -116.786 -116.81 -116.857 -116.892 -116.899 -116.9 -116.894 -116.889 -116.878 -116.867 -116.863 -116.857 -116.849 -116.835 -116.827 -116.819 -116.811 -116.801 -116.802 -116.807 -116.805 -116.804 -116.8 -116.797 -116.8 -116.799 -116.797 -116.797 -116.789 -116.777 -116.77 -116.757 -116.741 -116.733 -116.719 -116.71 -116.701 -116.693 -116.687 -116.681 -116.678 -116.671 -116.663 -116.656 -116.648 -116.641 -116.636 -116.627 -116.621 -116.614 -116.606 -116.605 -116.601 -116.599 -116.596 -116.593 -116.593 -116.59 -116.579 -116.572 -116.566 -116.559 -116.553 -116.546 -116.542 -116.539 -116.535 -116.533 -116.532 -116.53 -116.524 -116.519 -116.52 -116.519 -116.514 -116.511 -116.509 -116.509 -116.508 -116.506 -116.504 -116.501 -116.5 -116.498 -116.497 -116.496 -116.493 -116.489 -116.487 -116.483 -116.48 -116.476 -116.474 -116.471 -116.469 -116.466 -116.465 -116.461 -116.46 -116.455
255.5075 0.00025 -108.567 -108.593 -108.643 -108.682 -108.692 -108.698 -108.695 -108.695 -108.689 -108.681 -108.682 -108.681 -108.676 -108.668 -108.665 -108.662 -108.658 -108.652 -108.657 -108.665 -108.666 -108.667 -108.666 -108.665 -108.671 -108.673 -108.675 -108.678 -108.674 -108.667 -108.663 -108.654 -108.642 -108.638 -108.628 -108.623 -108.617 -108.613 -108.61 -108.606 -108.606 -108.6 -108.594 -108.588 -108.581 -108.575 -108.57 -108.561 -108.555 -108.547 -108.539 -108.537 -108.534 -108.531 -108.528 -108.525 -108.524 -108.521 -108.511 -108.504 -108.498 -108.492 -108.487 -108.481 -108.479 -108.477 -108.475 -108.475 -108.476 -108.476 -108.472 -108.468 -108.47 -108.47 -108.466 -108.463 -108.462 -108.461 -108.46 -108.459 -108.456 -108.454 -108.452 -108.451 -108.449 -108.448 -108.445 -108.441 -108.439 -108.435 -108.432 -108.428 -108.426 -108.423 -108.421 -108.418 -108.417 -108.413 -108.412 -108.406
255.51 0.00025 -101.048 -101.075 -101.127 -101.168 -101.18 -101.189 -101.189 -101.192 -101.189 -101.184 -101.189 -101.191 -101.19 -101.186 -101.187 -101.187 -101.188 -101.185 -101.193 -101.205 -101.21 -101.214 -101.217 -101.218 -101.226 -101.232 -101.237 -101.243 -101.244 -101.241 -101.241 -101.235 -101.227 -101.227 -101.22 -101.218 -101.215 -101.214 -101.214 -101.212 -101.214 -101.211 -101.206 -101.202 -101.196 -101.191 -101.187 -101.179 -101.173 -101.166 -101.158 -101.157 -101.154 -101.152 -101.149 -101.146 -101.145 -101.143 -101.134 -101.127 -101.122 -101.116 -101.112 -101.108 -101.108 -101.107 -101.106 -101.108 -101.11 -101.111 -101.109 -101.106 -101.109 -101.11 -101.107 -101.105 -101.103 -101.104 -101.103 -101.102 -101.1 -101.098 -101.097 -101.096 -101.095 -101.094 -101.091 -101.087 -101.085 -101.082 -101.079 -101.075 -101.073 -101.07 -101.069 -101.066 -101.065 -101.061 -101.06 -101.055
255.5125 0.00025 -98.717 -98.7449 -98.7978 -98.8403 -98.8528 -98.8632 -98.8641 -98.8689 -98.8682 -98.8635 -98.8698 -98.8731 -98.8737 -98.8719 -98.8736 -98.8755 -98.8778 -98.8769 -98.8851 -98.8989 -98.9049 -98.9102 -98.9134 -98.9153 -98.9246 -98.9322 -98.9387 -98.9461 -98.9478 -98.9467 -98.9484 -98.9432 -98.9363 -98.9376 -98.9325 -98.9319 -98.9297 -98.9292 -98.9299 -98.9293 -98.9324 -98.9291 -98.9244 -98.9209 -98.9151 -98.9113 -98.9075 -98.8987 -98.8933 -98.887 -98.879 -98.8778 -98.8748 -98.8728 -98.8704 -98.8675 -98.867 -98.8649 -98.8563 -98.8503 -98.8449 -98.8398 -98.8363 -98.8326 -98.8322 -98.8318 -98.8315 -98.8335 -98.8368 -98.8384 -98.8362 -98.8339 -98.8369 -98.8388 -98.8365 -98.8347 -98.8339 -98.8342 -98.8337 -98.8333 -98.8317 -98.8299 -98.8287 -98.8277 -98.8267 -98.8257 -98.8227 -98.8191 -98.8179 -98.8144 -98.812 -98.8082 -98.8063 -98.8034 -98.8019 -98.7995 -98.7983 -98.7945 -98.7935 -98.788
255.515 0.00025 -89.7405 -89.768 -89.8212 -89.8635 -89.876 -89.8861 -89.8872 -89.8928 -89.8925 -89.8873 -89.894 -89.8973 -89.8978 -89.8963 -89.8979 -89.8994 -89.9021 -89.9011 -89.9088 -89.9229 -89.9291 -89.9343 -89.9375 -89.9389 -89.9476 -89.9556 -89.9621 -89.9691 -89.9709 -89.9705 -89.9726 -89.9671 -89.9605 -89.962 -89.9573 -89.9572 -89.9547 -89.9542 -89.955 -89.9542 -89.9575 -89.9542 -89.9495 -89.946 -89.9402 -89.9367 -89.9329 -89.924 -89.9187 -89.9127 -89.9044 -89.9029 -89.8998 -89.898 -89.896 -89.8932 -89.8924 -89.8906 -89.8823 -89.8762 -89.8708 -89.8657 -89.8624 -89.8588 -89.8587 -89.8583 -89.8578 -89.8597 -89.8629 -89.8646 -89.8623 -89.8599 -89.8627 -89.8647 -89.8627 -89.861 -89.8602 -89.8606 -89.86 -89.8597 -89.858 -89.8561 -89.8547 -89.8538 -89.8527 -89.8517 -89.8487 -89.8452 -89.844 -89.8406 -89.8382 -89.8343 -89.8324 -89.8295 -89.828 -89.8256 -89.8244 -89.8205 -89.8195 -89.814
255.5175 0.00025 -71.5438 -71.5716 -71.6254 -71.6684 -71.6813 -71.6919 -71.6928 -71.6994 -71.6992 -71.6935 -71.7006 -71.7037 -71.7037 -71.7024 -71.7037 -71.7051 -71.7081 -71.7069 -71.7141 -71.7284 -71.7351 -71.7401 -71.7429 -71.7441 -71.7522 -71.7608 -71.7676 -71.7743 -71.7758 -71.7763 -71.7786 -71.7726 -71.7663 -71.7679 -71.7631 -71.7632 -71.7608 -71.7604 -71.7613 -71.7606 -71.7639 -71.7607 -71.7559 -71.7523 -71.7467 -71.7434 -71.7398 -71.7308 -71.7255 -71.7196 -71.7113 -71.7096 -71.7064 -71.7048 -71.7029 -71.7003 -71.6994 -71.698 -71.6904 -71.6845 -71.6792 -71.6742 -71.6708 -71.6674 -71.6673 -71.6671 -71.6665 -71.6684 -71.6718 -71.6736 -71.6712 -71.6687 -71.6714 -71.6735 -71.6717 -71.6701 -71.6693 -71.6696 -71.6691 -71.6689 -71.6672 -71.6653 -71.664 -71.6631 -71.662 -71.661 -71.658 -71.6546 -71.6534 -71.6502 -71.6477 -71.644 -71.642 -71.6391 -71.6376 -71.6352 -71.634 -71.6301 -71.6291 -71.6234
255.52 0.00025 -53.4222 -53.4499 -53.5041 -53.5474 -53.5611 -53.572 -53.5728 -53.5806 -53.5809 -53.5753 -53.583 -53.5862 -53.586 -53.5849 -53.5863 -53.5874 -53.5907 -53.5896 -53.5965 -53.6108 -53.6179 -53.6231 -53.6255 -53.6264 -53.6338 -53.6426 -53.6494 -53.6557 -53.6567 -53.6581 -53.6609 -53.6545 -53.6487 -53.6503 -53.6457 -53.6463 -53.6436 -53.6432 -53.644 -53.6431 -53.6465 -53.6433 -53.6386 -53.6347 -53.6291 -53.6263 -53.6226 -53.6138 -53.6086 -53.6029 -53.5947 -53.5927 -53.5895 -53.588 -53.5867 -53.5842 -53.5831 -53.5818 -53.5747 -53.569 -53.5639 -53.5588 -53.5555 -53.552 -53.552 -53.5517 -53.5509 -53.5526 -53.5561 -53.5579 -53.5555 -53.5531 -53.5556 -53.5577 -53.5562 -53.5547 -53.5538 -53.5541 -53.5536 -53.5534 -53.5517 -53.5497 -53.5484 -53.5475 -53.5463 -53.5453 -53.5424 -53.539 -53.538 -53.5347 -53.5323 -53.5285 -53.5265 -53.5235 -53.522 -53.5196 -53.5184 -53.5145 -53.5135 -53.5078
255.5225 0.00025 -39.7082 -39.7364 -39.791 -39.8347 -39.8481 -39.8593 -39.8596 -39.8676 -39.8678 -39.862 -39.8698 -39.8724 -39.8717 -39.8706 -39.8716 -39.8722 -39.8755 -39.8739 -39.8803 -39.8945 -39.902 -39.9068 -39.9088 -39.9092 -39.9157 -39.9239 -39.9304 -39.9359 -39.9364 -39.9381 -39.9409 -39.9337 -39.928 -39.9294 -39.9248 -39.9253 -39.9221 -39.9215 -39.9223 -39.9211 -39.9245 -39.9212 -39.9163 -39.9121 -39.9065 -39.9038 -39.8999 -39.8911 -39.8861 -39.8807 -39.8724 -39.8704 -39.8671 -39.866 -39.8649 -39.8624 -39.861 -39.8598 -39.8531 -39.8474 -39.8423 -39.8371 -39.8336 -39.8301 -39.8299 -39.8295 -39.8285 -39.8299 -39.8331 -39.8346 -39.8319 -39.8292 -39.8311 -39.8327 -39.8311 -39.8294 -39.828 -39.8279 -39.8272 -39.8266 -39.8246 -39.8222 -39.8206 -39.8195 -39.8181 -39.8168 -39.8137 -39.8101 -39.8089 -39.8055 -39.803 -39.799 -39.7968 -39.7937 -39.7921 -39.7895 -39.7883 -39.7843 -39.7832 -39.7775
255.525 0.00025 -32.2019 -32.2299 -32.2854 -32.329 -32.3439 -32.3552 -32.3557 -32.364 -32.3644 -32.3586 -32.3667 -32.3694 -32.3679 -32.3669 -32.3682 -32.3688 -32.3724 -32.3708 -32.3769 -32.3908 -32.3982 -32.403 -32.4048 -32.4052 -32.4114 -32.4196 -32.4265 -32.4315 -32.4318 -32.4343 -32.4373 -32.4297 -32.4243 -32.4258 -32.4216 -32.4224 -32.4187 -32.4181 -32.4189 -32.4175 -32.4207 -32.4176 -32.4127 -32.4084 -32.4031 -32.4005 -32.3968 -32.388 -32.3828 -32.3775 -32.3693 -32.367 -32.3636 -32.3626 -32.3619 -32.3597 -32.358 -32.3571 -32.351 -32.3454 -32.3404 -32.3351 -32.3318 -32.3284 -32.3283 -32.328 -32.327 -32.3282 -32.3314 -32.3329 -32.3301 -32.3275 -32.3292 -32.3308 -32.3295 -32.3279 -32.3265 -32.3265 -32.3259 -32.3254 -32.3236 -32.3211 -32.3196 -32.3184 -32.317 -32.3157 -32.3126 -32.309 -32.3078 -32.3045 -32.302 -32.298 -32.2958 -32.2927 -32.2911 -32.2885 -32.2872 -32.2832 -32.2821 -32.2763
255.5275 0.00025 -27.0972 -27.1249 -27.1807 -27.2241 -27.2392 -27.2505 -27.2515 -27.2601 -27.2602 -27.2546 -27.263 -27.2659 -27.2639 -27.2629 -27.264 -27.265 -27.2688 -27.2668 -27.2727 -27.2863 -27.2939 -27.2989 -27.3004 -27.3007 -27.3062 -27.3139 -27.3208 -27.3257 -27.3255 -27.3287 -27.3315 -27.3232 -27.3182 -27.3195 -27.3155 -27.3165 -27.3125 -27.3119 -27.3126 -27.3113 -27.3143 -27.3111 -27.3062 -27.3015 -27.2962 -27.2937 -27.29 -27.2812 -27.2761 -27.2709 -27.2627 -27.2602 -27.2567 -27.2556 -27.2552 -27.2531 -27.2511 -27.2502 -27.2447 -27.2392 -27.2344 -27.2289 -27.2253 -27.2222 -27.2218 -27.2213 -27.2201 -27.2213 -27.2245 -27.2259 -27.223 -27.2205 -27.222 -27.2234 -27.2224 -27.2209 -27.2193 -27.2193 -27.2188 -27.2183 -27.2165 -27.214 -27.2124 -27.2114 -27.2099 -27.2086 -27.2056 -27.2021 -27.201 -27.1977 -27.1951 -27.1911 -27.1889 -27.1858 -27.1841 -27.1815 -27.1802 -27.1762 -27.175 -27.1693
255.53 0.00025 -22.7021 -22.7297 -22.7861 -22.8294 -22.8449 -22.8561 -22.8572 -22.8661 -22.8662 -22.8614 -22.8704 -22.8732 -22.8711 -22.8702 -22.8716 -22.8731 -22.8772 -22.8753 -22.8811 -22.8948 -22.9033 -22.9088 -22.9106 -22.9112 -22.9169 -22.9248 -22.9323 -22.9373 -22.937 -22.9412 -22.9442 -22.936 -22.9316 -22.933 -22.9295 -22.9305 -22.9262 -22.9258 -22.9267 -22.9255 -22.9282 -22.9251 -22.9205 -22.9156 -22.9103 -22.908 -22.9043 -22.896 -22.8911 -22.886 -22.8779 -22.8753 -22.8718 -22.871 -22.8708 -22.8689 -22.8668 -22.8661 -22.8612 -22.8559 -22.8512 -22.8455 -22.8421 -22.8391 -22.8389 -22.8387 -22.8376 -22.8388 -22.8422 -22.8438 -22.8411 -22.8388 -22.8401 -22.8417 -22.8412 -22.8402 -22.8387 -22.8388 -22.8388 -22.8386 -22.8369 -22.8345 -22.8331 -22.8323 -22.8309 -22.8297 -22.8268 -22.8235 -22.8226 -22.8195 -22.817 -22.8131 -22.8109 -22.8079 -22.8063 -22.8036 -22.8024 -22.7984 -22.7972 -22.7915
255.5325 0.00025 -17.9508 -17.9782 -18.0349 -18.0785 -18.0946 -18.1055 -18.1066 -18.1147 -18.114 -18.1099 -18.1191 -18.122 -18.1194 -18.1183 -18.1196 -18.1216 -18.1258 -18.1233 -18.129 -18.1424 -18.1508 -18.1565 -18.1585 -18.159 -18.1639 -18.1714 -18.179 -18.1838 -18.1831 -18.1875 -18.1907 -18.1823 -18.1783 -18.1797 -18.1766 -18.1776 -18.1727 -18.1723 -18.1733 -18.1719 -18.1743 -18.1714 -18.167 -18.1619 -18.1566 -18.1544 -18.1507 -18.1425 -18.1376 -18.1326 -18.1246 -18.1217 -18.1181 -18.1173 -18.1173 -18.1156 -18.1132 -18.1126 -18.1082 -18.1031 -18.0987 -18.093 -18.0895 -18.0867 -18.0865 -18.0861 -18.0851 -18.0861 -18.0895 -18.091 -18.0883 -18.086 -18.0871 -18.0884 -18.0882 -18.0874 -18.0858 -18.086 -18.086 -18.0858 -18.0842 -18.0818 -18.0803 -18.0795 -18.0782 -18.0769 -18.074 -18.0707 -18.0698 -18.0668 -18.0643 -18.0604 -18.0582 -18.0551 -18.0535 -18.0508 -18.0496 -18.0455 -18.0443 -18.0385
255.535 0.00025 -13.0062 -13.0333 -13.0901 -13.1337 -13.1499 -13.1604 -13.1608 -13.1686 -13.1675 -13.1636 -13.1731 -13.1758 -13.1727 -13.1713 -13.1724 -13.1747 -13.1789 -13.1758 -13.1806 -13.1937 -13.2021 -13.2076 -13.2094 -13.2098 -13.2143 -13.221 -13.2286 -13.2332 -13.2319 -13.2365 -13.2393 -13.2304 -13.2266 -13.2279 -13.2249 -13.2255 -13.2199 -13.2196 -13.2203 -13.2187 -13.2205 -13.2173 -13.2131 -13.2074 -13.2019 -13.1996 -13.1958 -13.1877 -13.1828 -13.1777 -13.1694 -13.1663 -13.1625 -13.1617 -13.1619 -13.1604 -13.1578 -13.1571 -13.1531 -13.1481 -13.1435 -13.1375 -13.1341 -13.1312 -13.1309 -13.1303 -13.1292 -13.1299 -13.1329 -13.1341 -13.1312 -13.1289 -13.1295 -13.1303 -13.13 -13.1291 -13.127 -13.1268 -13.1267 -13.1263 -13.1245 -13.1219 -13.1202 -13.1193 -13.1178 -13.1164 -13.1133 -13.11 -13.109 -13.1059 -13.1033 -13.0994 -13.097 -13.0939 -13.0921 -13.0894 -13.0881 -13.084 -13.0827 -13.0769
255.5375 0.00025 -10.3564 -10.3832 -10.4405 -10.4854 -10.5022 -10.5129 -10.5134 -10.5206 -10.5192 -10.5165 -10.5262 -10.5291 -10.5252 -10.5236 -10.5247 -10.5274 -10.5322 -10.5289 -10.5333 -10.5464 -10.5554 -10.5612 -10.5634 -10.564 -10.5686 -10.5748 -10.5825 -10.5877 -10.5861 -10.5909 -10.5937 -10.585 -10.5815 -10.5831 -10.5809 -10.5812 -10.5757 -10.5756 -10.5764 -10.5751 -10.5766 -10.5736 -10.5698 -10.5642 -10.5588 -10.5564 -10.5528 -10.5451 -10.5404 -10.5355 -10.5273 -10.5243 -10.5207 -10.5198 -10.5202 -10.5189 -10.5164 -10.5158 -10.5122 -10.5076 -10.5033 -10.4973 -10.4936 -10.4912 -10.4908 -10.4904 -10.4896 -10.4903 -10.4935 -10.4949 -10.4922 -10.4902 -10.4908 -10.4916 -10.4917 -10.4912 -10.4893 -10.4891 -10.4894 -10.4894 -10.4877 -10.4852 -10.4836 -10.483 -10.4816 -10.4803 -10.4774 -10.4742 -10.4734 -10.4705 -10.468 -10.4641 -10.4618 -10.4587 -10.457 -10.4543 -10.453 -10.4489 -10.4477 -10.4419
255.54 0.00025 -7.29996 -7.32674 -7.38445 -7.43058 -7.44726 -7.45684 -7.45723 -7.46373 -7.46229 -7.46076 -7.47035 -7.47287 -7.46875 -7.46679 -7.46751 -7.47064 -7.47581 -7.47227 -7.47639 -7.4893 -7.49852 -7.5041 -7.50661 -7.50789 -7.51211 -7.51748 -7.52516 -7.53092 -7.52901 -7.53385 -7.53666 -7.52766 -7.52421 -7.52591 -7.52409 -7.52408 -7.51818 -7.51811 -7.51891 -7.51767 -7.51856 -7.51566 -7.5124 -7.50653 -7.50093 -7.49853 -7.49478 -7.48737 -7.48271 -7.4777 -7.46951 -7.46636 -7.46288 -7.46194 -7.46231 -7.46127 -7.45851 -7.45799 -7.45476 -7.45004 -7.44597 -7.43965 -7.43587 -7.43355 -7.43299 -7.43249 -7.43174 -7.4322 -7.43521 -7.43641 -7.43372 -7.43197 -7.43236 -7.43288 -7.43306 -7.43275 -7.43067 -7.43048 -7.43086 -7.43082 -7.4291 -7.42647 -7.42488 -7.42422 -7.4228 -7.42138 -7.41847 -7.41526 -7.41448 -7.41156 -7.40906 -7.40512 -7.40279 -7.39971 -7.398 -7.3952 -7.39388 -7.38976 -7.38846 -7.38263
255.5425 0.00025 -4.59366 -4.62003 -4.67798 -4.72494 -4.74194 -4.75176 -4.75253 -4.75814 -4.75653 -4.75624 -4.76581 -4.76838 -4.76426 -4.76194 -4.76245 -4.76583 -4.77135 -4.76705 -4.77072 -4.78337 -4.79316 -4.79866 -4.80141 -4.80321 -4.80706 -4.81165 -4.81925 -4.82531 -4.82292 -4.82743 -4.83002 -4.82142 -4.81815 -4.81983 -4.81859 -4.81802 -4.8118 -4.81188 -4.81248 -4.81122 -4.81163 -4.80857 -4.80573 -4.79963 -4.79387 -4.7913 -4.78748 -4.78028 -4.77566 -4.77068 -4.76249 -4.75925 -4.75571 -4.75468 -4.75509 -4.75419 -4.75142 -4.75079 -4.74794 -4.74365 -4.73966 -4.73313 -4.72926 -4.72716 -4.72663 -4.72605 -4.72543 -4.72581 -4.72866 -4.72969 -4.72698 -4.72535 -4.72547 -4.72563 -4.72587 -4.72577 -4.72371 -4.72334 -4.72387 -4.72381 -4.72211 -4.71948 -4.71785 -4.71721 -4.71576 -4.71423 -4.71128 -4.70811 -4.70736 -4.70451 -4.70199 -4.69808 -4.69573 -4.69268 -4.69093 -4.68809 -4.68675 -4.68261 -4.6813 -4.67544
255.545 0.00025 -1.78824 -1.81463 -1.87257 -1.92018 -1.93667 -1.94606 -1.94628 -1.95137 -1.94991 -1.95075 -1.95998 -1.96276 -1.95835 -1.95589 -1.95592 -1.95983 -1.96589 -1.96138 -1.96456 -1.97696 -1.98686 -1.99209 -1.99501 -1.99753 -2.00109 -2.00483 -2.01198 -2.01876 -2.01648 -2.02051 -2.02296 -2.01416 -2.01084 -2.01321 -2.01246 -2.01147 -2.00501 -2.00511 -2.00561 -2.00449 -2.00438 -2.00119 -1.9988 -1.99267 -1.98656 -1.98387 -1.98002 -1.9731 -1.96844 -1.96344 -1.95498 -1.95167 -1.94828 -1.94707 -1.94752 -1.94666 -1.94391 -1.94319 -1.94048 -1.93628 -1.93228 -1.92545 -1.92137 -1.91947 -1.91886 -1.91822 -1.91783 -1.91805 -1.92074 -1.92167 -1.91893 -1.91743 -1.91744 -1.91736 -1.91753 -1.91762 -1.91543 -1.91501 -1.91561 -1.9156 -1.91391 -1.91112 -1.90937 -1.90874 -1.9073 -1.90575 -1.90279 -1.89963 -1.89891 -1.89604 -1.89346 -1.88958 -1.88715 -1.88403 -1.88226 -1.87936 -1.878 -1.87384 -1.87251 -1.86662
255.5475 0.00025 1.04583 1.0192 0.96208 0.913719 0.896584 0.887901 0.887448 0.883349 0.88449 0.883226 0.874586 0.871862 0.876452 0.878753 0.87936 0.874975 0.868939 0.874022 0.871298 0.859163 0.849375 0.844277 0.841061 0.837802 0.834206 0.831221 0.824733 0.817644 0.820297 0.816692 0.814342 0.822747 0.825933 0.823548 0.823846 0.825555 0.832195 0.832011 0.831731 0.832622 0.833283 0.836307 0.838227 0.844432 0.850519 0.853237 0.857073 0.863747 0.868368 0.873271 0.881765 0.885194 0.888444 0.889803 0.889533 0.89 0.892742 0.893357 0.895718 0.899589 0.903465 0.910451 0.914668 0.916477 0.917287 0.917994 0.918205 0.91812 0.915663 0.914861 0.917581 0.918862 0.919075 0.919449 0.919309 0.919101 0.921409 0.921987 0.921163 0.92107 0.922714 0.925561 0.92741 0.927979 0.929391 0.930906 0.933865 0.937056 0.937724 0.940527 0.943103 0.946963 0.949408 0.952541 0.954372 0.95729 0.958693 0.962874 0.96425 0.970174
255.55 0.00025 3.30657 3.27963 3.22253 3.17283 3.15539 3.14659 3.14665 3.14421 3.1445 3.14231 3.13449 3.13138 3.13583 3.138 3.13918 3.13446 3.12837 3.13378 3.13114 3.11962 3.10955 3.10472 3.1017 3.09778 3.09429 3.09199 3.08586 3.07828 3.08077 3.07753 3.07545 3.08381 3.0871 3.08442 3.08413 3.0864 3.09299 3.09266 3.09262 3.09331 3.09446 3.09774 3.0991 3.10554 3.11178 3.11478 3.1187 3.12501 3.1295 3.13434 3.14305 3.14651 3.14961 3.15104 3.15069 3.15118 3.15378 3.15436 3.15661 3.16013 3.16377 3.17102 3.17539 3.17704 3.17774 3.17862 3.17857 3.17862 3.17632 3.17575 3.17844 3.17948 3.17972 3.18031 3.18022 3.17978 3.18207 3.1828 3.18193 3.18176 3.18344 3.18628 3.18814 3.18865 3.19016 3.19179 3.19478 3.198 3.19863 3.20139 3.20397 3.20786 3.21033 3.21348 3.2153 3.21829 3.21972 3.22392 3.2253 3.23124
255.5525 0.00025 4.78497 4.75765 4.70111 4.65069 4.63312 4.6243 4.6244 4.62313 4.62265 4.61986 4.61259 4.60917 4.61361 4.61592 4.61762 4.61238 4.60628 4.61156 4.60883 4.59759 4.58726 4.58283 4.57939 4.57443 4.57069 4.5691 4.5633 4.55543 4.55794 4.5554 4.5534 4.56114 4.56446 4.56148 4.56091 4.56375 4.5706 4.57016 4.57027 4.57061 4.57223 4.57547 4.57625 4.58267 4.58895 4.59209 4.59607 4.60225 4.60699 4.6118 4.62057 4.62402 4.627 4.62856 4.62849 4.62889 4.63141 4.63217 4.63437 4.63772 4.64139 4.64884 4.65347 4.65494 4.65595 4.65688 4.65655 4.65666 4.6546 4.65421 4.65695 4.6578 4.65811 4.6591 4.65914 4.6586 4.66088 4.66176 4.66091 4.66068 4.66232 4.66524 4.66716 4.66774 4.6692 4.6709 4.67391 4.67709 4.67773 4.68049 4.68312 4.68703 4.68954 4.69271 4.69454 4.69756 4.699 4.70323 4.70465 4.71058
255.555 0.00025 5.86445 5.83702 5.78127 5.72972 5.71173 5.70326 5.70302 5.70294 5.70168 5.69832 5.69151 5.68801 5.69205 5.69431 5.69641 5.69098 5.68449 5.68987 5.68735 5.67673 5.66643 5.66219 5.65868 5.65251 5.64845 5.6474 5.64235 5.63454 5.63678 5.63461 5.63315 5.64074 5.64423 5.6411 5.63977 5.64301 5.64958 5.64916 5.64952 5.64964 5.65168 5.65467 5.65508 5.66155 5.66791 5.67119 5.67534 5.68121 5.68574 5.69039 5.6994 5.70294 5.70562 5.70719 5.70703 5.70738 5.70976 5.71053 5.71276 5.71576 5.71938 5.72695 5.73179 5.73324 5.73419 5.73513 5.73453 5.73474 5.7329 5.7326 5.73538 5.73609 5.73643 5.73749 5.73767 5.73696 5.73916 5.74013 5.73918 5.73889 5.7405 5.7435 5.74551 5.74609 5.74753 5.74927 5.75233 5.75552 5.75611 5.75883 5.76143 5.76533 5.76792 5.7711 5.77293 5.776 5.77745 5.78171 5.78312 5.78908
255.5575 0.00025 6.89348 6.86549 6.80976 6.75731 6.73957 6.73115 6.731 6.73211 6.73009 6.72647 6.72015 6.71648 6.72077 6.72298 6.72573 6.72025 6.71378 6.71925 6.71672 6.70679 6.69692 6.69309 6.68944 6.68233 6.67812 6.6776 6.67288 6.66499 6.66714 6.66543 6.66412 6.67129 6.67481 6.67152 6.66983 6.67375 6.68044 6.68018 6.68103 6.68089 6.68346 6.68647 6.68641 6.69321 6.69957 6.70299 6.70733 6.71283 6.7173 6.72193 6.73096 6.73447 6.73707 6.73864 6.73857 6.7389 6.74121 6.74213 6.74412 6.74686 6.75052 6.75823 6.76331 6.76472 6.76568 6.76685 6.766 6.76627 6.76453 6.76452 6.76734 6.76789 6.76829 6.76956 6.76994 6.76906 6.77116 6.77226 6.7713 6.77089 6.77254 6.77558 6.77766 6.77819 6.77969 6.78144 6.78452 6.78774 6.78836 6.79104 6.79369 6.7976 6.80018 6.80341 6.80528 6.80838 6.8099 6.8142 6.81563 6.8216
255.56 0.00025 7.90284 7.87473 7.81968 7.76691 7.74971 7.7416 7.74204 7.74391 7.74129 7.73753 7.7316 7.72773 7.73172 7.73377 7.73715 7.73132 7.72511 7.73048 7.72737 7.71799 7.70834 7.70468 7.70113 7.69339 7.68907 7.68869 7.68429 7.67673 7.6788 7.67729 7.67664 7.68344 7.68719 7.68401 7.68179 7.68608 7.69262 7.69223 7.69328 7.69278 7.69573 7.6987 7.69835 7.70526 7.71179 7.71538 7.71985 7.72503 7.72961 7.73412 7.74327 7.74677 7.74939 7.75093 7.75108 7.75158 7.75379 7.75466 7.75681 7.75922 7.7626 7.77041 7.77562 7.77706 7.77811 7.77941 7.77827 7.77833 7.77695 7.77704 7.77979 7.78018 7.78054 7.78201 7.78269 7.78177 7.78387 7.78514 7.78413 7.78371 7.78515 7.78826 7.79037 7.79087 7.79234 7.7941 7.79715 7.80039 7.80105 7.80373 7.80641 7.81033 7.81293 7.81614 7.81804 7.82117 7.8227 7.82701 7.82844 7.83445
255.5625 0.00025 9.0155 8.98713 8.93217 8.87937 8.86093 8.85291 8.85343 8.85604 8.85245 8.84891 8.84362 8.83937 8.84261 8.84441 8.84795 8.84238 8.83653 8.842 8.83865 8.82978 8.82066 8.817 8.8131 8.80452 8.80007 8.7999 8.79584 8.78881 8.79101 8.78965 8.78929 8.79592 8.79963 8.79649 8.79379 8.79856 8.80491 8.80471 8.80595 8.80524 8.8085 8.81134 8.81077 8.8179 8.82446 8.82839 8.83323 8.83817 8.84264 8.84708 8.85625 8.85997 8.86235 8.8638 8.86406 8.86477 8.86665 8.86758 8.86966 8.87189 8.8753 8.88307 8.88858 8.89014 8.89109 8.89254 8.89122 8.89144 8.89026 8.89058 8.89338 8.89375 8.89406 8.89566 8.89646 8.8955 8.89753 8.89894 8.89791 8.89735 8.89873 8.90184 8.90405 8.90465 8.90609 8.90784 8.91091 8.91412 8.91479 8.91743 8.92017 8.92414 8.92679 8.92999 8.93187 8.93504 8.93659 8.94094 8.94244 8.94848
255.565 0.00025 10.1151 10.0863 10.0315 9.97805 9.95952 9.95184 9.95266 9.95559 9.95135 9.94762 9.9423 9.93798 9.94041 9.94184 9.94545 9.94015 9.93459 9.94009 9.93593 9.92753 9.91943 9.91551 9.91149 9.90219 9.89749 9.89736 9.89327 9.88658 9.88905 9.88786 9.88797 9.89407 9.89755 9.89445 9.89122 9.89609 9.90235 9.90233 9.9038 9.90291 9.90651 9.90917 9.90834 9.91549 9.92191 9.92598 9.93097 9.93568 9.94007 9.94443 9.95346 9.95714 9.95956 9.96069 9.96094 9.96178 9.96361 9.96455 9.96632 9.96809 9.97126 9.97914 9.98483 9.98647 9.98745 9.989 9.98755 9.98765 9.98676 9.98738 9.99018 9.99035 9.99062 9.99235 9.99342 9.99236 9.99421 9.99573 9.99461 9.9939 9.99526 9.99841 10.0007 10.0012 10.0027 10.0045 10.0076 10.0108 10.0115 10.0141 10.0169 10.0209 10.0235 10.0267 10.0286 10.0318 10.0333 10.0377 10.0392 10.0453
255.5675 0.00025 11.4012 11.3725 11.3174 11.2643 11.2458 11.2378 11.2384 11.2417 11.2374 11.2339 11.2297 11.2253 11.2271 11.228 11.2317 11.2268 11.2217 11.2272 11.2225 11.2145 11.2073 11.2032 11.1989 11.1893 11.1843 11.184 11.18 11.1737 11.176 11.1749 11.1755 11.1811 11.1844 11.1817 11.1784 11.1833 11.1895 11.19 11.1918 11.1906 11.1945 11.1969 11.1959 11.2034 11.2098 11.2141 11.2193 11.2239 11.2282 11.2326 11.2417 11.2453 11.2477 11.2486 11.2491 11.2501 11.2517 11.2525 11.2544 11.2559 11.2593 11.2669 11.2726 11.2743 11.2753 11.2769 11.2754 11.2754 11.2748 11.2755 11.2783 11.2784 11.2786 11.2804 11.2817 11.2806 11.2824 11.2841 11.283 11.2823 11.2835 11.2867 11.289 11.2895 11.2909 11.2928 11.296 11.2992 11.2998 11.3025 11.3052 11.3092 11.3119 11.3151 11.317 11.3203 11.3218 11.3262 11.3277 11.3338
255.57 0.00025 11.8971 11.8677 11.8129 11.7599 11.7411 11.7328 11.7326 11.737 11.7324 11.7296 11.726 11.7215 11.7228 11.7238 11.7278 11.7229 11.7184 11.7238 11.7186 11.7113 11.705 11.7008 11.6966 11.6873 11.6826 11.682 11.678 11.6726 11.6753 11.6745 11.6757 11.6813 11.6847 11.6824 11.6784 11.6835 11.6895 11.6904 11.6924 11.6912 11.6954 11.6977 11.6967 11.7044 11.711 11.7157 11.7211 11.7254 11.7298 11.7343 11.7434 11.7473 11.7498 11.7506 11.751 11.7525 11.754 11.755 11.7569 11.7583 11.7613 11.7688 11.7748 11.7769 11.7778 11.7795 11.7779 11.7777 11.7774 11.7785 11.7814 11.7817 11.7819 11.7838 11.7857 11.7849 11.7866 11.7885 11.7876 11.787 11.7882 11.7914 11.7938 11.7944 11.7959 11.7978 11.8011 11.8043 11.8051 11.8079 11.8106 11.8147 11.8175 11.8208 11.8228 11.8261 11.8278 11.8323 11.8339 11.8399
255.5725 0.00025 13.1477 13.1183 13.064 13.0109 12.9921 12.9844 12.9839 12.9886 12.9841 12.9811 12.9775 12.9733 12.974 12.9745 12.9781 12.9737 12.9699 12.9751 12.9693 12.9626 12.9573 12.9529 12.9483 12.939 12.9344 12.9332 12.9293 12.9245 12.9276 12.9269 12.9283 12.9334 12.9367 12.9349 12.9306 12.9356 12.9417 12.9428 12.9452 12.9439 12.9483 12.9501 12.9491 12.957 12.9633 12.9681 12.9737 12.9778 12.982 12.9866 12.9956 12.9995 13.0023 13.0028 13.0032 13.005 13.0064 13.0074 13.0093 13.0103 13.0137 13.0211 13.0272 13.0293 13.0303 13.0321 13.0303 13.0301 13.0301 13.0315 13.0344 13.0347 13.035 13.0369 13.039 13.0382 13.0398 13.0416 13.0408 13.0403 13.0415 13.0447 13.0472 13.0479 13.0494 13.0514 13.0546 13.0579 13.0588 13.0615 13.0643 13.0684 13.0712 13.0746 13.0766 13.08 13.0817 13.0861 13.0877 13.0938
255.575 0.00025 14.3307 14.3012 14.2465 14.1935 14.176 14.168 14.1668 14.1715 14.1669 14.1638 14.1606 14.1563 14.1563 14.1565 14.1602 14.156 14.1526 14.1574 14.1511 14.1449 14.1408 14.1358 14.1306 14.1215 14.1171 14.1151 14.1112 14.107 14.1103 14.1102 14.1119 14.1167 14.1198 14.1183 14.1138 14.1186 14.1245 14.1258 14.1284 14.1271 14.1315 14.1331 14.1321 14.1403 14.1466 14.1516 14.1575 14.1612 14.1655 14.17 14.1788 14.1829 14.1858 14.1861 14.1866 14.1887 14.19 14.1909 14.1927 14.1937 14.1968 14.2041 14.2104 14.2128 14.2136 14.2155 14.2138 14.2134 14.2136 14.2151 14.2179 14.2181 14.2184 14.2203 14.2226 14.2217 14.2233 14.2254 14.2245 14.2239 14.225 14.2282 14.2308 14.2314 14.233 14.235 14.2383 14.2416 14.2425 14.2453 14.2481 14.2522 14.2551 14.2584 14.2604 14.2638 14.2655 14.27 14.2716 14.2778
255.5775 0.00025 16.1569 16.127 16.0726 16.0193 16.0015 15.9929 15.991 15.9957 15.9909 15.9881 15.986 15.9816 15.981 15.9809 15.9843 15.9803 15.9774 15.9815 15.9748 15.9689 15.9655 15.9602 15.954 15.9452 15.9407 15.9373 15.9329 15.929 15.9321 15.932 15.9338 15.9383 15.9413 15.9401 15.9351 15.9395 15.9455 15.9473 15.9498 15.9485 15.9529 15.9539 15.9529 15.9612 15.9673 15.9726 15.9785 15.9822 15.9863 15.9909 15.9995 16.0033 16.0063 16.0062 16.0064 16.0088 16.0099 16.0105 16.0121 16.0129 16.0161 16.023 16.0291 16.0318 16.0325 16.0343 16.0325 16.0318 16.0321 16.0338 16.0365 16.0367 16.0368 16.0384 16.0408 16.0399 16.0412 16.0431 16.0422 16.0413 16.0422 16.0452 16.0477 16.0483 16.0497 16.0516 16.0548 16.058 16.0589 16.0615 16.0642 16.0682 16.0711 16.0744 16.0763 16.0796 16.0813 16.0859 16.0874 16.0936
255.58 0.00025 17.3251 17.295 17.2407 17.1877 17.1709 17.162 17.1597 17.1642 17.1594 17.1573 17.156 17.1524 17.1512 17.1509 17.1539 17.15 17.1477 17.1514 17.1445 17.1391 17.1368 17.1314 17.1244 17.1161 17.1121 17.1077 17.1033 17.0999 17.1032 17.1034 17.1054 17.1095 17.1124 17.1115 17.1065 17.1105 17.1161 17.118 17.1207 17.1194 17.1238 17.1246 17.1236 17.1319 17.1377 17.1432 17.1492 17.1526 17.1566 17.1612 17.1695 17.1734 17.1767 17.1765 17.1767 17.1794 17.1805 17.181 17.1826 17.1834 17.1866 17.1933 17.1997 17.2029 17.2034 17.2051 17.2034 17.2025 17.203 17.2047 17.2073 17.2077 17.2078 17.2093 17.2119 17.211 17.2121 17.214 17.2131 17.2123 17.2132 17.2161 17.2185 17.2191 17.2204 17.2224 17.2256 17.2287 17.2297 17.2323 17.235 17.239 17.2419 17.2452 17.2472 17.2505 17.2522 17.2568 17.2584 17.2646
255.5825 0.00025 18.5422 18.5119 18.4571 18.4045 18.3884 18.3787 18.3756 18.3803 18.3752 18.3729 18.3721 18.3686 18.3668 18.3662 18.369 18.3654 18.3633 18.3666 18.3597 18.3545 18.3532 18.3477 18.3397 18.3317 18.3279 18.3225 18.3181 18.3153 18.3186 18.3194 18.3217 18.3257 18.3283 18.3279 18.3228 18.3265 18.3323 18.3346 18.3374 18.336 18.3404 18.3409 18.3399 18.3484 18.354 18.3597 18.366 18.3693 18.3734 18.3779 18.3859 18.3899 18.3936 18.393 18.393 18.3961 18.3971 18.3974 18.3988 18.3996 18.4028 18.4094 18.4157 18.4192 18.4197 18.4214 18.4197 18.4187 18.4193 18.4213 18.4238 18.4241 18.4241 18.4257 18.4284 18.4276 18.4286 18.4306 18.4297 18.4289 18.4298 18.4325 18.435 18.4355 18.4369 18.4389 18.4421 18.4452 18.4462 18.449 18.4516 18.4556 18.4586 18.4619 18.4639 18.4673 18.469 18.4736 18.4753 18.4814
255.585 0.00025 18.6872 18.6569 18.6024 18.5501 18.5347 18.5252 18.5215 18.5259 18.5209 18.5188 18.5187 18.5161 18.5135 18.5127 18.5156 18.5122 18.5106 18.5136 18.5072 18.5026 18.5022 18.4968 18.488 18.4804 18.4774 18.471 18.4666 18.4641 18.4676 18.4689 18.4715 18.4751 18.4777 18.4778 18.4728 18.4763 18.4821 18.4848 18.4878 18.4867 18.4911 18.4914 18.4904 18.4988 18.5046 18.5105 18.517 18.5201 18.524 18.529 18.5367 18.5407 18.5448 18.5443 18.5443 18.5478 18.549 18.5491 18.5504 18.5512 18.5548 18.561 18.5675 18.5715 18.5721 18.5738 18.5722 18.5712 18.5721 18.5742 18.5769 18.5774 18.5777 18.5792 18.5823 18.5819 18.5831 18.5852 18.5845 18.5839 18.5848 18.5876 18.5901 18.5908 18.5922 18.5944 18.5978 18.6009 18.6021 18.605 18.6077 18.6118 18.6149 18.6182 18.6203 18.6238 18.6255 18.6302 18.6319 18.6381