255.5025 0.00025 1.66557 0.273817 0.0913579 0.0540389 0.0416586 0.0346768 0.029521 0.0253041 0.0226768 0.020625 0.0189469 0.0175423 0.0166183 0.0157343 0.0147991 0.0138192 0.0133798 0.0128779 0.0123713 0.0120445 0.0114077 0.0109921 0.0105439 0.00994765 0.00937282 0.00915932 0.00913308 0.00903494 0.00890281 0.00875106 0.00840089 0.00819298 0.00805125 0.00791649 0.00770192 0.00740227 0.00726271 0.0070822 0.00685905 0.00666369 0.00646015 0.00637665 0.00621034 0.00603633 0.00598838 0.006016 0.00588555 0.00570772 0.00555042 0.0056454 0.0056757 0.00561917 0.0055577 0.00541531 0.00531206 0.00522014 0.00517516 0.00510536 0.00496163 0.00502282 0.00490925 0.00466348 0.0045187 0.0044617 0.00434236 0.00423295 0.00405095 0.00388544 0.0037539 0.00357971 0.00343219 0.00338771 0.0033828 0.00325357 0.00314264 0.00306295 0.00290375 0.00271094 0.00258564 0.00251178 0.00243284 0.00230023 0.00213057 0.00197652 0.00188564 0.00180109 0.00167707 0.0015752 0.00148987 0.00143917 0.00134465 0.00119911 0.00113264 0.00108944 0.00102054 0.000977865 0.000942261 0.000883456 0.000882642 0.000801555
255.505 0.00025 1.66588 0.273656 0.0913387 0.054113 0.0417052 0.0347043 0.0295614 0.0253035 0.0226572 0.0206128 0.0189427 0.0175257 0.0165947 0.0157243 0.014814 0.0138301 0.0133854 0.0128961 0.0123755 0.0120473 0.0114016 0.0109961 0.0105642 0.00996509 0.00937836 0.00915851 0.00913081 0.00904262 0.00890783 0.00873523 0.00839631 0.00819651 0.00805148 0.00791656 0.00770171 0.0074098 0.00726278 0.00707829 0.00685461 0.00665286 0.00644398 0.00636287 0.00620711 0.00603411 0.00598088 0.00600743 0.00587985 0.0057123 0.00555207 0.00564554 0.00568379 0.00561547 0.00555164 0.00542198 0.00532514 0.00523373 0.00518444 0.00510979 0.00496926 0.00503345 0.00491582 0.00467181 0.00452084 0.00445645 0.00433808 0.00423875 0.00405591 0.00388609 0.00375352 0.00357784 0.00343129 0.00338608 0.00337807 0.00324896 0.00313466 0.00305527 0.0029036 0.00271186 0.00258469 0.00251024 0.00243222 0.00229977 0.00213385 0.0019788 0.00188679 0.00180283 0.00167771 0.00157521 0.00148969 0.00143849 0.00134598 0.00120158 0.00113304 0.00109017 0.001022 0.000979338 0.000944057 0.000884835 0.000883958 0.000802138
255.5075 0.00025 1.66602 0.273792 0.0913233 0.0541733 0.0417458 0.0347129 0.0296084 0.0253178 0.0226313 0.0206086 0.018941 0.017518 0.0165653 0.0157124 0.0148269 0.0138403 0.0133861 0.0129114 0.0123887 0.0120482 0.0113919 0.0109991 0.0105836 0.00998688 0.00938751 0.00915989 0.00912944 0.00905224 0.00891384 0.00871919 0.00839503 0.00819974 0.00805241 0.00792039 0.00770089 0.00741684 0.00726452 0.00707871 0.00684946 0.00664218 0.00642765 0.00634952 0.0062025 0.00603326 0.00597279 0.00599874 0.00587226 0.00571528 0.00555517 0.00564786 0.00569145 0.00561424 0.00554561 0.00542746 0.00533755 0.00524622 0.00519372 0.00511491 0.00497776 0.00504195 0.00492307 0.0046815 0.00452351 0.00445054 0.00433349 0.00424425 0.00406184 0.00388736 0.00375348 0.00357635 0.00343113 0.00338555 0.00337181 0.00324366 0.00312558 0.0030469 0.00290276 0.00271344 0.00258394 0.00250927 0.00243102 0.00229982 0.00213768 0.00198119 0.00188739 0.00180484 0.00167858 0.00157502 0.00148924 0.00143825 0.00134713 0.00120404 0.00113356 0.00109068 0.00102313 0.000980021 0.000945913 0.000886191 0.000885368 0.000802774
255.51 0.00025 1.6662 0.274005 0.0914267 0.0542404 0.0417901 0.0347117 0.0296705 0.0253356 0.022614 0.0206044 0.0189451 0.0175081 0.0165294 0.0156953 0.0148416 0.0138545 0.013386 0.0129287 0.0123991 0.0120494 0.0113818 0.0109998 0.010602 0.010006 0.00939979 0.00916504 0.00912666 0.00905896 0.00891982 0.00870093 0.00839461 0.00820426 0.00805163 0.00792554 0.00770273 0.00742165 0.00726724 0.00707769 0.00684584 0.0066321 0.00641428 0.00633794 0.00619838 0.00603253 0.0059673 0.00599042 0.00586498 0.00571644 0.0055598 0.00564933 0.00570127 0.00561341 0.00553836 0.00543224 0.00534938 0.00525968 0.00520451 0.00511991 0.00498465 0.00505066 0.00492861 0.00469244 0.00452709 0.00444449 0.00432912 0.00424918 0.00406837 0.00388988 0.00375404 0.00357467 0.00343132 0.00338466 0.00336571 0.00323969 0.00311784 0.00303853 0.00290211 0.00271481 0.00258359 0.00250863 0.00243022 0.00229989 0.00214105 0.00198369 0.00188852 0.00180655 0.00167958 0.0015748 0.00148882 0.00143738 0.00134803 0.00120675 0.00113442 0.00109122 0.00102437 0.000981081 0.000948045 0.000887437 0.000886498 0.00080329
255.5125 0.00025 1.6664 0.273815 0.0915266 0.0542659 0.0418251 0.0346992 0.029722 0.0253632 0.0225951 0.020601 0.0189468 0.0175043 0.0164986 0.015676 0.0148482 0.0138668 0.0133836 0.0129422 0.0124105 0.0120481 0.0113755 0.0109981 0.0106231 0.0100248 0.00941591 0.00917156 0.00912368 0.00906591 0.0089257 0.0086847 0.0083904 0.00821052 0.00804939 0.00792915 0.00770195 0.00742564 0.00726968 0.00707843 0.00684115 0.00661975 0.00639973 0.00632692 0.00619381 0.006032 0.00596282 0.00598233 0.00585737 0.00571659 0.00556421 0.00565113 0.00570906 0.00561466 0.00553372 0.00543571 0.00535975 0.00527389 0.00521599 0.00512765 0.0049921 0.0050585 0.00493364 0.00470338 0.00453083 0.00443942 0.00432348 0.00425304 0.00407535 0.00389243 0.0037545 0.00357272 0.00343127 0.00338355 0.00335911 0.00323456 0.00311099 0.00303037 0.00290054 0.00271716 0.00258361 0.00250802 0.00242916 0.0022993 0.00214445 0.0019863 0.00188973 0.00180906 0.00168037 0.0015747 0.0014887 0.00143661 0.00134864 0.0012095 0.00113476 0.00109197 0.0010257 0.00098185 0.000949997 0.000888818 0.000887855 0.000804239
255.515 0.00025 1.66661 0.273579 0.0916838 0.0543199 0.0418654 0.0346958 0.0297753 0.0253878 0.0225941 0.0206049 0.018954 0.017503 0.0164704 0.0156584 0.0148593 0.0138829 0.0133819 0.0129577 0.0124238 0.0120469 0.0113666 0.010995 0.0106397 0.0100423 0.00943347 0.00918063 0.00912238 0.00907166 0.00892909 0.00866809 0.0083919 0.00821802 0.00804801 0.00793302 0.00770068 0.00742931 0.00727404 0.00707908 0.00683904 0.00660807 0.00638641 0.00631623 0.0061884 0.00602993 0.00595731 0.00597334 0.00584994 0.00571602 0.00556693 0.00565253 0.00571731 0.00561578 0.0055305 0.00543917 0.0053707 0.00528564 0.00522807 0.00513476 0.00500006 0.00506423 0.00494037 0.00471366 0.0045344 0.00443282 0.0043165 0.00425697 0.00408095 0.00389485 0.00375436 0.003571 0.00343235 0.0033832 0.00335287 0.00322997 0.00310316 0.00302261 0.00289922 0.00271919 0.00258374 0.00250722 0.00242844 0.00229875 0.0021478 0.00198885 0.00189112 0.00181097 0.00168139 0.00157481 0.0014886 0.00143573 0.00134915 0.00121236 0.00113575 0.00109238 0.00102705 0.000982785 0.000951837 0.000890056 0.000889026 0.000805005
255.5175 0.00025 1.66685 0.273909 0.0917243 0.0543523 0.0419075 0.0346923 0.0298342 0.0254327 0.0225894 0.0206127 0.0189614 0.0175019 0.0164446 0.015637 0.0148646 0.0139007 0.0133806 0.0129671 0.0124386 0.0120482 0.0113647 0.0109919 0.010653 0.0100604 0.0094522 0.00918877 0.00912299 0.00907717 0.0089309 0.00864905 0.00839004 0.00822593 0.0080498 0.00793856 0.00770136 0.00742842 0.00727847 0.00708222 0.00683672 0.00659734 0.00637197 0.00630784 0.0061851 0.00603041 0.00595262 0.00596606 0.00584365 0.00571534 0.00557082 0.005655 0.0057241 0.00561801 0.00552621 0.00544227 0.00537848 0.00529851 0.00523983 0.00514241 0.0050111 0.00506914 0.00494682 0.00472535 0.0045394 0.00442767 0.00430976 0.00425976 0.00408719 0.00389823 0.00375465 0.0035691 0.00343313 0.00338284 0.00334543 0.00322568 0.00309626 0.00301475 0.00289821 0.00272079 0.00258416 0.00250651 0.00242734 0.00229835 0.00215213 0.00199148 0.00189231 0.00181246 0.00168261 0.00157457 0.00148857 0.00143495 0.00134935 0.00121589 0.00113683 0.00109292 0.00102821 0.00098362 0.000953666 0.000891454 0.000890117 0.000805755
255.52 0.00025 1.66711 0.27398 0.0917955 0.0544023 0.0419418 0.0346985 0.029888 0.0254699 0.0225886 0.0206245 0.0189707 0.0175037 0.0164299 0.0156215 0.0148706 0.0139153 0.0133778 0.0129756 0.0124524 0.0120474 0.0113616 0.0109869 0.0106626 0.0100761 0.00947627 0.00920003 0.00912638 0.0090829 0.00893176 0.0086311 0.00838871 0.0082323 0.00805074 0.00794262 0.0077015 0.00742902 0.00728461 0.00708557 0.00683386 0.00658633 0.00635926 0.00630025 0.00618182 0.00602697 0.00594899 0.00595908 0.00583796 0.00571418 0.00557608 0.0056562 0.00573108 0.00562157 0.00552155 0.00544475 0.00538592 0.00530974 0.00525219 0.00515089 0.00502039 0.00507531 0.00495237 0.00473469 0.00454533 0.00442264 0.00430289 0.00426214 0.00409354 0.00390246 0.00375639 0.00356805 0.00343531 0.00338188 0.00333754 0.00321998 0.00309009 0.00300754 0.00289634 0.0027225 0.00258432 0.00250642 0.00242598 0.00229797 0.0021554 0.00199432 0.00189385 0.00181477 0.001684 0.00157488 0.00148852 0.00143463 0.00134977 0.00121866 0.00113769 0.00109299 0.00102938 0.000984327 0.000955355 0.000892878 0.000891399 0.000806735
255.5225 0.00025 1.66736 0.273963 0.0917607 0.0544489 0.0419786 0.034674 0.0299408 0.0255202 0.0225961 0.020627 0.0189793 0.0175085 0.0164187 0.0156037 0.0148746 0.0139276 0.0133783 0.012984 0.0124673 0.012043 0.0113627 0.0109841 0.0106706 0.0100931 0.00949685 0.00921117 0.00913152 0.00908939 0.00893004 0.00861309 0.00838784 0.0082409 0.00805473 0.00794957 0.00769967 0.00742698 0.0072907 0.0070872 0.00683028 0.00657859 0.00634893 0.00629351 0.00617727 0.00602383 0.00594738 0.00594983 0.00583075 0.00571277 0.00557988 0.00565677 0.00573588 0.00562641 0.00551937 0.00544772 0.00539176 0.00532052 0.00526448 0.00515956 0.00502965 0.00507956 0.0049573 0.00474788 0.00455202 0.00441862 0.00429589 0.00426388 0.00409936 0.0039072 0.00375853 0.00356708 0.00343606 0.00338157 0.00333062 0.00321478 0.0030847 0.00300066 0.00289406 0.00272398 0.00258476 0.00250627 0.00242548 0.00229816 0.00215898 0.00199686 0.00189554 0.00181635 0.001685 0.00157461 0.0014884 0.00143371 0.00135031 0.00122166 0.00113887 0.00109327 0.00103061 0.000984981 0.000957221 0.000894192 0.000892325 0.000807672
255.525 0.00025 1.66761 0.274018 0.0917071 0.0544694 0.042038 0.0346797 0.0299827 0.0255754 0.0226091 0.0206395 0.0189901 0.0175102 0.0164129 0.0155894 0.0148838 0.0139369 0.0133759 0.0129869 0.0124777 0.0120437 0.0113685 0.0109841 0.0106742 0.0101122 0.00951788 0.00922214 0.00913675 0.00909722 0.00892555 0.00859352 0.00838912 0.00824903 0.00806068 0.00795607 0.00769597 0.00742337 0.00729608 0.00709193 0.00682893 0.00657068 0.00633802 0.00628623 0.00617272 0.00602206 0.0059433 0.00594042 0.00582448 0.00571074 0.00558258 0.00565822 0.00574003 0.00563009 0.00551729 0.00545103 0.0053971 0.00533097 0.00527692 0.00516983 0.00504284 0.0050823 0.00496269 0.00476083 0.00455821 0.00441596 0.0042891 0.00426483 0.00410615 0.0039127 0.0037623 0.00356653 0.00343697 0.00338071 0.00332212 0.00320845 0.00307952 0.00299292 0.00289161 0.0027251 0.00258525 0.00250616 0.00242462 0.0022973 0.00216138 0.0019998 0.0018972 0.00181822 0.00168627 0.00157472 0.00148826 0.00143327 0.00135028 0.00122399 0.00114047 0.00109344 0.00103184 0.000985893 0.000958861 0.000895703 0.00089351 0.00080878
255.5275 0.00025 1.66784 0.273932 0.0917093 0.0544908 0.0420858 0.0346685 0.0300079 0.0256405 0.0226314 0.0206467 0.0190023 0.017527 0.0164122 0.0155843 0.0148846 0.0139448 0.0133774 0.0129867 0.0124876 0.0120409 0.0113773 0.0109793 0.0106761 0.0101288 0.0095365 0.00923535 0.00914555 0.00910759 0.00892035 0.00857592 0.00839075 0.00825756 0.00806777 0.00796301 0.00769267 0.00741911 0.00730178 0.00709522 0.00682692 0.00656206 0.00632823 0.00628159 0.0061677 0.00601767 0.00593899 0.00593179 0.00581791 0.0057072 0.0055876 0.0056589 0.00574191 0.00563397 0.00551622 0.00545539 0.00540112 0.00533943 0.00528849 0.00518035 0.0050551 0.00508505 0.00497024 0.00477122 0.00456549 0.00441208 0.0042843 0.00426314 0.0041107 0.00391787 0.00376552 0.0035657 0.00343841 0.00338032 0.0033141 0.0032031 0.00307414 0.00298749 0.00288932 0.00272635 0.00258523 0.00250623 0.00242399 0.00229639 0.0021645 0.00200233 0.00189867 0.00181947 0.00168784 0.00157478 0.00148797 0.00143275 0.00134993 0.00122685 0.00114178 0.00109363 0.00103291 0.000986651 0.000960644 0.000897301 0.000894597 0.000809858
255.53 0.00025 1.66805 0.274205 0.09186 0.0545124 0.0421407 0.0346794 0.0300389 0.0256938 0.0226562 0.0206485 0.0190083 0.0175311 0.0164156 0.0155847 0.0148836 0.0139558 0.0133787 0.0129868 0.0124934 0.0120412 0.0113876 0.0109774 0.0106783 0.010146 0.00955698 0.00924829 0.00915417 0.00911612 0.00891389 0.00855866 0.00839321 0.00826661 0.00807818 0.00796915 0.00768803 0.00741448 0.00730504 0.00710294 0.0068279 0.0065552 0.00631852 0.0062756 0.00616454 0.00601255 0.00593973 0.00592173 0.00581255 0.0057051 0.00558889 0.00566009 0.00574367 0.00563811 0.00551539 0.00545942 0.00540523 0.00534785 0.00529958 0.00519147 0.00506842 0.00508775 0.00497526 0.00478321 0.00457308 0.00440909 0.00427801 0.00426149 0.00411527 0.00392288 0.00376862 0.00356488 0.00343934 0.00338046 0.00330603 0.0031976 0.00306919 0.00298125 0.00288671 0.00272757 0.00258516 0.00250664 0.00242331 0.00229549 0.00216711 0.00200562 0.00190064 0.00182141 0.00168964 0.00157515 0.00148759 0.00143209 0.00134954 0.00122969 0.00114348 0.00109367 0.00103411 0.000987416 0.000962537 0.000898954 0.000895608 0.000811015
255.5325 0.00025 1.66824 0.274307 0.0918962 0.0545324 0.0421968 0.0346858 0.0300606 0.0257503 0.0226938 0.0206553 0.0190181 0.0175427 0.0164273 0.0155804 0.0148825 0.0139645 0.0133802 0.0129874 0.0124941 0.0120381 0.0114013 0.0109769 0.0106757 0.0101597 0.00957459 0.00926351 0.00916391 0.00912882 0.0089059 0.00854352 0.00839738 0.00827645 0.00808885 0.00797596 0.00768316 0.00740986 0.0073082 0.00710812 0.00682733 0.00655096 0.00630955 0.0062689 0.00616002 0.00600672 0.00593785 0.00591231 0.00580597 0.00570142 0.00559102 0.00566076 0.0057434 0.00564294 0.00551725 0.00546254 0.00540953 0.00535571 0.00531138 0.00520281 0.00508068 0.00509023 0.00497936 0.0047937 0.00457997 0.00440726 0.00427195 0.00425862 0.00411962 0.00392938 0.00377208 0.00356444 0.00344089 0.0033792 0.00329745 0.00319098 0.00306469 0.002976 0.00288447 0.00272776 0.00258496 0.00250681 0.00242276 0.00229492 0.00216968 0.00200836 0.0019021 0.00182335 0.00169116 0.00157564 0.00148737 0.00143119 0.00134964 0.00123223 0.00114496 0.00109371 0.00103492 0.00098834 0.000964246 0.000900648 0.000896648 0.000812084
255.535 0.00025 1.6684 0.274701 0.0918835 0.0545506 0.0422597 0.0347023 0.030073 0.0258061 0.022742 0.0206665 0.0190241 0.0175501 0.0164364 0.0155858 0.0148784 0.013972 0.01338 0.0129845 0.0124933 0.0120331 0.0114167 0.0109804 0.0106715 0.0101727 0.00959462 0.00927938 0.00917503 0.0091391 0.00889922 0.00853166 0.00840193 0.00828602 0.00810173 0.00798176 0.00767767 0.00740773 0.00731404 0.00711503 0.00682704 0.0065463 0.00630169 0.00626272 0.00615468 0.00600336 0.00593461 0.00590259 0.0058014 0.00569829 0.00559245 0.00566084 0.00574138 0.00564723 0.00552131 0.00546685 0.0054119 0.00536283 0.00532128 0.00521439 0.00509534 0.00509148 0.00498361 0.00480499 0.00458785 0.00440633 0.00426725 0.00425346 0.00412191 0.00393588 0.00377534 0.00356446 0.00344234 0.00337799 0.00328903 0.00318409 0.00306053 0.00297082 0.00288235 0.00272802 0.00258477 0.0025076 0.00242172 0.00229473 0.00217237 0.00201157 0.00190404 0.00182499 0.00169308 0.00157575 0.00148719 0.00143049 0.00134914 0.00123471 0.00114669 0.00109369 0.00103584 0.000989146 0.00096588 0.00090212 0.000897735 0.000813183
255.5375 0.00025 1.66854 0.274626 0.0919104 0.0545879 0.0423256 0.0347289 0.0300862 0.0258657 0.0227936 0.0206789 0.0190258 0.0175474 0.0164449 0.0155905 0.0148745 0.0139825 0.0133828 0.0129816 0.0124925 0.0120279 0.011433 0.0109865 0.0106678 0.0101829 0.00960897 0.00929874 0.00918735 0.00915158 0.00889114 0.00852197 0.00840485 0.00829525 0.00811495 0.00798842 0.00767263 0.00740635 0.00731857 0.00711952 0.00682744 0.00654485 0.00629547 0.00625654 0.00614832 0.00599897 0.005934 0.00589212 0.00579517 0.00569412 0.00559366 0.00566095 0.00573871 0.00565377 0.00552362 0.00547133 0.00541588 0.00536859 0.00533119 0.00522616 0.00510923 0.00509333 0.00498619 0.00481447 0.00459532 0.00440414 0.004263 0.00424837 0.00412335 0.00394343 0.00378063 0.0035643 0.00344387 0.00337669 0.0032807 0.00317732 0.00305672 0.00296623 0.00288045 0.00272795 0.00258468 0.00250858 0.00242101 0.00229423 0.00217475 0.00201455 0.00190577 0.0018264 0.0016943 0.00157626 0.00148679 0.00143004 0.00134854 0.00123713 0.0011489 0.00109408 0.00103655 0.000989821 0.000967828 0.000903876 0.000898735 0.000814296
255.54 0.00025 1.66865 0.274609 0.0918928 0.0545871 0.0423941 0.0347622 0.0301012 0.0259037 0.0228483 0.020696 0.0190245 0.0175441 0.0164599 0.0156074 0.014871 0.0139851 0.0133832 0.012978 0.0124899 0.0120153 0.0114463 0.0109954 0.0106623 0.0101914 0.00962815 0.00931595 0.00919661 0.00916079 0.008883 0.00851164 0.0084092 0.00830563 0.0081287 0.00799235 0.00766856 0.00740659 0.00732199 0.00712394 0.00682822 0.00654337 0.00628935 0.00625013 0.00614247 0.00599183 0.00593325 0.00588374 0.00579057 0.00569179 0.00559611 0.00565955 0.00573423 0.00565994 0.00552764 0.00547589 0.00541911 0.00537513 0.00534095 0.00523917 0.00512228 0.00509587 0.00498908 0.0048254 0.00460353 0.00440416 0.00425867 0.00424289 0.00412292 0.00395011 0.00378496 0.00356462 0.00344687 0.0033755 0.00327227 0.00317006 0.00305404 0.00296207 0.00287806 0.00272824 0.00258428 0.00250942 0.00241993 0.00229321 0.00217755 0.00201745 0.0019077 0.00182783 0.00169581 0.00157682 0.00148655 0.00142929 0.00134802 0.00123901 0.00115052 0.00109437 0.00103737 0.000990655 0.000969274 0.000905318 0.000899578 0.000815408
255.5425 0.00025 1.66873 0.274704 0.0918795 0.0546149 0.0424561 0.0348078 0.0301034 0.0259458 0.0229115 0.0207258 0.0190226 0.0175404 0.0164703 0.0156198 0.0148671 0.0139874 0.0133847 0.0129746 0.0124861 0.0120048 0.0114618 0.011005 0.0106558 0.0101993 0.00964415 0.00933449 0.00920559 0.00916839 0.00887709 0.00850425 0.00841307 0.00831558 0.00814143 0.00799659 0.00766391 0.00740836 0.00732387 0.00712581 0.0068297 0.00654356 0.00628696 0.00624217 0.00613556 0.00598649 0.00593309 0.00587381 0.00578448 0.00568931 0.00559815 0.00565837 0.00572819 0.00566499 0.00553337 0.0054796 0.0054237 0.00537939 0.00534976 0.00525358 0.00513741 0.00509788 0.00499118 0.00483236 0.00461331 0.00440507 0.00425494 0.0042382 0.00412087 0.00395696 0.00378973 0.00356691 0.00344931 0.00337436 0.00326315 0.00316173 0.00305108 0.0029592 0.00287543 0.00272756 0.00258443 0.0025099 0.00241919 0.00229359 0.00218002 0.00202105 0.00190986 0.00182874 0.00169777 0.00157775 0.00148631 0.00142869 0.00134765 0.00124133 0.00115264 0.00109465 0.00103817 0.000991483 0.000970918 0.000907113 0.000900969 0.000816544
255.545 0.00025 1.6688 0.275082 0.091899 0.0546159 0.0425022 0.034869 0.030112 0.0259803 0.0229715 0.0207516 0.0190177 0.0175328 0.0164795 0.0156374 0.0148696 0.01399 0.013388 0.0129712 0.0124838 0.0119924 0.0114766 0.0110158 0.0106498 0.0102068 0.00966607 0.00934932 0.00921679 0.00917389 0.00887256 0.00850131 0.00841829 0.00832528 0.00815726 0.00799834 0.00765955 0.0074081 0.0073253 0.00712635 0.00682864 0.00654499 0.00628246 0.00623512 0.00612876 0.00598075 0.00593331 0.00586563 0.0057788 0.0056863 0.00560012 0.00565732 0.00572111 0.00567067 0.00553824 0.00548455 0.00542806 0.00538527 0.0053588 0.00526513 0.00515245 0.00510185 0.00499353 0.00484019 0.00462181 0.00440393 0.00425218 0.004234 0.00411762 0.00396302 0.00379609 0.00356803 0.00345175 0.00337343 0.00325546 0.00315338 0.00304668 0.00295577 0.0028735 0.0027274 0.00258391 0.00251066 0.00241829 0.00229309 0.00218208 0.00202442 0.00191182 0.00183015 0.00169932 0.00157873 0.00148634 0.00142795 0.00134741 0.00124329 0.00115453 0.00109486 0.00103877 0.000992669 0.000972342 0.000908809 0.000902016 0.000817855
255.5475 0.00025 1.66885 0.275038 0.0918828 0.05464 0.0425711 0.0349287 0.0301306 0.026019 0.0230421 0.0207811 0.0190202 0.0175213 0.0164916 0.0156565 0.0148705 0.0139926 0.013393 0.01297 0.0124851 0.011979 0.0114879 0.0110267 0.0106456 0.0102113 0.00968913 0.00936718 0.00922342 0.00917687 0.0088697 0.00850245 0.00842311 0.00833249 0.00817091 0.00800187 0.00765515 0.00741131 0.00732881 0.00712746 0.00682804 0.00654507 0.00627917 0.00622939 0.00612177 0.00597624 0.00593343 0.00585731 0.00577347 0.00568326 0.00560181 0.00565568 0.00571269 0.00567577 0.00554328 0.00548809 0.00543271 0.00538946 0.00536715 0.00527652 0.00516632 0.00510655 0.00499509 0.00484935 0.0046294 0.00440379 0.00424963 0.00422895 0.00411263 0.00396698 0.00380163 0.00357048 0.00345466 0.00337289 0.00324641 0.00314539 0.00304284 0.0029524 0.00287135 0.00272637 0.00258295 0.00251058 0.00241746 0.00229245 0.00218435 0.00202743 0.0019143 0.00183105 0.00170109 0.00158001 0.00148622 0.00142736 0.00134768 0.00124507 0.00115654 0.00109508 0.00103921 0.000994011 0.000973964 0.000910676 0.000902961 0.000818999
255.55 0.00025 1.66888 0.27517 0.0918226 0.0546891 0.0426592 0.0349833 0.030152 0.0260484 0.0231197 0.0208135 0.0190191 0.0175106 0.0164965 0.0156783 0.0148723 0.0139921 0.0133947 0.0129674 0.0124839 0.0119579 0.0114987 0.0110376 0.0106395 0.0102188 0.00971465 0.00938481 0.0092315 0.00917753 0.00886769 0.00850834 0.00842964 0.00834103 0.0081862 0.00800199 0.00765345 0.00741542 0.00732891 0.00712672 0.00682948 0.00654673 0.00627782 0.00622225 0.00611099 0.00597121 0.00593534 0.00584826 0.00576689 0.00568048 0.00560488 0.00565332 0.00570514 0.00568183 0.00555043 0.00549152 0.00543791 0.00539372 0.00537544 0.00528772 0.00518231 0.00511138 0.00499425 0.0048563 0.00463772 0.00440425 0.00424857 0.00422545 0.00410828 0.00397161 0.00380712 0.00357208 0.0034578 0.00337227 0.00323881 0.0031369 0.00303842 0.00295041 0.00287007 0.00272592 0.00258197 0.00251109 0.00241629 0.00229267 0.00218635 0.00203059 0.00191706 0.00183199 0.00170216 0.00158118 0.00148619 0.0014266 0.00134698 0.00124718 0.00115847 0.00109542 0.00103949 0.00099475 0.000975555 0.000912327 0.000904111 0.000820233
255.5525 0.00025 1.6689 0.2752 0.0918485 0.0547148 0.0427219 0.0350764 0.0301717 0.0260744 0.0231863 0.0208561 0.0190183 0.0174978 0.016497 0.0156928 0.014877 0.0139935 0.0133958 0.0129658 0.0124823 0.0119351 0.0115075 0.0110481 0.0106339 0.0102247 0.00974026 0.00940129 0.00923874 0.00917699 0.00886596 0.00851795 0.00843381 0.00834727 0.00820024 0.00800326 0.00765039 0.00742245 0.00732944 0.00712578 0.00682877 0.00655004 0.0062771 0.00621552 0.00609986 0.00596705 0.00593672 0.00584037 0.00576024 0.00567847 0.00560635 0.00565063 0.00569458 0.00568726 0.0055579 0.00549423 0.00544299 0.00539779 0.00538374 0.00529955 0.00519588 0.00511553 0.0049917 0.00485978 0.00464688 0.00440542 0.00424659 0.00422247 0.00410353 0.00397499 0.00381305 0.00357482 0.00346229 0.00337146 0.00323076 0.0031278 0.00303536 0.00294839 0.002869 0.0027253 0.00258047 0.00251112 0.00241537 0.00229246 0.00218833 0.00203396 0.00191968 0.00183276 0.00170361 0.00158269 0.00148616 0.00142636 0.00134653 0.0012485 0.00116049 0.0010958 0.00104017 0.000995902 0.000977093 0.000913888 0.00090492 0.000821458
255.555 0.00025 1.66892 0.2755 0.0918466 0.054754 0.042802 0.0351628 0.0302056 0.0260903 0.0232465 0.0208995 0.0190218 0.0174837 0.0164917 0.0157102 0.0148892 0.0139935 0.0133952 0.0129644 0.0124822 0.0119168 0.0115137 0.0110576 0.010627 0.0102317 0.00976682 0.0094167 0.00924434 0.00917412 0.00886304 0.00853123 0.00844352 0.00835122 0.00821302 0.00800185 0.0076489 0.00742798 0.00733297 0.00712268 0.00682647 0.00655088 0.00627908 0.00620834 0.00608946 0.00596218 0.00593716 0.0058326 0.0057561 0.00567622 0.00560996 0.00564673 0.00568452 0.00569349 0.00556365 0.00549725 0.00544902 0.00540268 0.00539186 0.00531056 0.00520999 0.00512219 0.0049904 0.0048636 0.00465463 0.00440704 0.00424451 0.00421979 0.00409769 0.00397583 0.00381927 0.00357987 0.00346581 0.00337166 0.00322354 0.00311972 0.00303214 0.00294671 0.00286801 0.00272491 0.00257923 0.00251101 0.0024148 0.00229214 0.00219002 0.0020374 0.00192276 0.00183399 0.00170534 0.00158392 0.00148614 0.0014255 0.00134607 0.00124997 0.00116251 0.00109636 0.00104069 0.000996459 0.000978699 0.00091587 0.000906049 0.000822904
255.5575 0.00025 1.66893 0.275709 0.0917931 0.0547964 0.0428653 0.0352471 0.0302449 0.0261111 0.0233087 0.020943 0.0190261 0.0174655 0.0164845 0.0157218 0.0149001 0.0139903 0.0134006 0.0129659 0.0124779 0.0118965 0.0115125 0.0110691 0.0106262 0.0102387 0.00979646 0.00943209 0.00924867 0.00917159 0.00886466 0.0085489 0.00845343 0.00835714 0.00822696 0.00799795 0.00764728 0.00743627 0.00733321 0.00711513 0.0068262 0.00655117 0.00628286 0.00620248 0.00607636 0.00595738 0.00593926 0.00582639 0.0057519 0.00567412 0.00561186 0.00564466 0.00567421 0.00569939 0.00557064 0.00549967 0.00545499 0.00540822 0.0054003 0.00532166 0.0052254 0.00512758 0.00498653 0.0048663 0.00466362 0.00440923 0.0042429 0.00421644 0.00409098 0.00397655 0.00382384 0.00358261 0.00347033 0.00337113 0.00321622 0.00311121 0.00302778 0.00294695 0.00286699 0.00272434 0.002578 0.00251092 0.00241371 0.00229208 0.00219194 0.00204093 0.00192591 0.00183464 0.00170656 0.00158563 0.00148675 0.00142462 0.00134556 0.00125129 0.00116443 0.00109705 0.00104094 0.000997108 0.000980207 0.000917647 0.000907061 0.000824174
255.56 0.00025 1.66894 0.275603 0.09176 0.0548386 0.0429591 0.0353266 0.0302834 0.0261387 0.0233691 0.0209911 0.0190366 0.0174481 0.0164705 0.0157331 0.0149158 0.0139927 0.0133999 0.012967 0.0124721 0.0118762 0.0115122 0.0110787 0.0106268 0.0102506 0.009823 0.00944445 0.00925219 0.00916589 0.0088675 0.00857135 0.00846318 0.00836118 0.00823865 0.00799472 0.007646 0.0074436 0.00733305 0.00711058 0.00682494 0.00655292 0.00628616 0.0061966 0.00606392 0.00595288 0.0059386 0.00582264 0.00574802 0.00567298 0.00561809 0.00564002 0.00566512 0.0057041 0.00557783 0.00550149 0.00546052 0.00541423 0.00541001 0.00533252 0.00523932 0.00513338 0.00498432 0.00486945 0.00466956 0.00441136 0.00424232 0.00421308 0.00408498 0.00397646 0.00382717 0.00358722 0.00347408 0.00337031 0.00320887 0.003102 0.0030235 0.002946 0.00286591 0.00272353 0.00257628 0.00251039 0.00241255 0.00229171 0.00219366 0.00204448 0.00192966 0.00183544 0.00170779 0.00158727 0.00148704 0.00142382 0.00134508 0.00125288 0.00116648 0.00109731 0.00104126 0.000997934 0.000981734 0.000919653 0.00090793 0.000825416
255.5625 0.00025 1.66895 0.2756 0.0916906 0.0548935 0.0430252 0.0354272 0.0303341 0.026158 0.0234227 0.0210377 0.0190599 0.0174358 0.0164505 0.015741 0.0149285 0.0139963 0.0133961 0.0129694 0.0124619 0.0118529 0.0115061 0.0110869 0.010624 0.0102595 0.00984734 0.00945711 0.00925533 0.00915856 0.00886908 0.00859538 0.00847444 0.00836422 0.00824934 0.00799106 0.00764291 0.00745281 0.0073316 0.0071011 0.00682059 0.00655461 0.00628955 0.00619108 0.00605079 0.00594658 0.00593903 0.00581699 0.00574438 0.00566991 0.00561945 0.00563662 0.00565422 0.00570803 0.00558514 0.00550362 0.00546586 0.00542189 0.0054188 0.00534283 0.00525218 0.00514131 0.00498288 0.00487067 0.00467559 0.00441419 0.00424175 0.00421008 0.00407867 0.00397549 0.00383041 0.00359184 0.00347888 0.00337071 0.00320285 0.00309251 0.00301841 0.0029441 0.00286631 0.00272304 0.0025745 0.00250962 0.00241155 0.00229122 0.00219499 0.00204763 0.00193293 0.00183672 0.00170888 0.00158914 0.00148757 0.00142312 0.00134511 0.00125429 0.00116845 0.00109789 0.00104165 0.000998279 0.000983224 0.000921465 0.000909074 0.000826939
255.565 0.00025 1.66897 0.275669 0.0916876 0.0549521 0.0431067 0.0355235 0.030397 0.0261902 0.0234774 0.0210909 0.0190758 0.0174311 0.0164313 0.0157453 0.014949 0.0140002 0.0133936 0.0129689 0.0124554 0.0118335 0.0115 0.0110928 0.0106251 0.0102725 0.0098682 0.00946978 0.00925975 0.00915207 0.00887359 0.00862124 0.00848478 0.00836801 0.00825976 0.00798628 0.00764224 0.00746372 0.00733217 0.007091 0.00681779 0.00655648 0.00629288 0.0061856 0.00603867 0.00594067 0.00593855 0.00581276 0.0057401 0.00566751 0.00562176 0.00562925 0.00564354 0.00571192 0.00559465 0.0055054 0.00547232 0.00542969 0.00542876 0.00535399 0.00526484 0.00514861 0.00498112 0.0048711 0.00468266 0.00441688 0.00424236 0.00420687 0.0040729 0.00397364 0.00383258 0.00359832 0.0034834 0.00337044 0.00319659 0.00308318 0.0030132 0.00294303 0.00286595 0.00272295 0.00257262 0.00250852 0.00241059 0.00229092 0.0021962 0.00205113 0.00193652 0.00183725 0.00171028 0.00159107 0.00148815 0.00142246 0.0013449 0.00125529 0.00117039 0.00109864 0.00104193 0.000998856 0.000984862 0.000923614 0.000910171 0.000828183
255.5675 0.00025 1.66899 0.275737 0.0917123 0.0550029 0.0431977 0.0356179 0.0304638 0.0262273 0.0235255 0.0211412 0.0190948 0.0174125 0.0164047 0.0157427 0.0149715 0.0140082 0.0133959 0.0129693 0.0124473 0.011815 0.0114871 0.0111009 0.0106285 0.0102858 0.00988712 0.00948124 0.00926564 0.0091465 0.00888002 0.00865031 0.00849728 0.00836955 0.0082686 0.00798248 0.00764022 0.00747386 0.00733138 0.00708246 0.00681212 0.00655941 0.0062977 0.00617962 0.00602865 0.00593517 0.00593875 0.00581049 0.00573647 0.00566636 0.00562327 0.00562494 0.00563328 0.00571543 0.00560275 0.00550729 0.00547793 0.00543837 0.00543973 0.00536506 0.0052767 0.00515527 0.00497978 0.00486969 0.0046884 0.00442128 0.00424408 0.00420396 0.00406871 0.00397149 0.00383409 0.00360418 0.00348872 0.00337062 0.00319165 0.00307372 0.00300822 0.00294158 0.00286534 0.00272279 0.00257077 0.002507 0.00240938 0.00229087 0.00219745 0.00205442 0.00194064 0.00183881 0.00171095 0.00159281 0.00148916 0.00142151 0.00134516 0.00125649 0.00117215 0.00109936 0.0010421 0.000999112 0.000986129 0.000925825 0.000911193 0.000829624