255.5025 0.00025 1.66328 0.273567 0.0899284 0.0528723 0.0407466 0.0340192 0.0289904 0.0248522 0.0223302 0.0203705 0.0187259 0.0173179 0.0163966 0.015552 0.0146788 0.013789 0.0133226 0.0128219 0.0123353 0.01201 0.0114119 0.0110071 0.010547 0.00995148 0.00939115 0.00915992 0.00910537 0.00900257 0.0088505 0.00870392 0.00838583 0.00818842 0.00802148 0.00786988 0.00765733 0.00737202 0.00724118 0.00705367 0.0068342 0.00664597 0.00643653 0.00635453 0.00618692 0.00600902 0.00596468 0.00598067 0.00583951 0.00564809 0.00549035 0.00556531 0.00559719 0.00555889 0.00548381 0.00533739 0.00523794 0.00515118 0.00510519 0.00503409 0.00488196 0.00492654 0.0048263 0.00461131 0.00448994 0.00443602 0.00431069 0.00420075 0.00404565 0.00387811 0.00374861 0.00357352 0.00342532 0.00337387 0.00336424 0.00323904 0.00313421 0.00305967 0.00289487 0.00269302 0.00256556 0.00248953 0.00241394 0.00229213 0.00212661 0.00196732 0.0018621 0.00177413 0.00164936 0.00154738 0.00146411 0.00141345 0.0013145 0.00117318 0.00111422 0.00107561 0.00100632 0.000961421 0.000931984 0.000882908 0.000887136 0.000806998
255.505 0.00025 1.66359 0.273422 0.0899113 0.052948 0.0407889 0.0340515 0.0290308 0.0248475 0.0223073 0.0203526 0.0187185 0.017303 0.0163787 0.015541 0.0146918 0.0138045 0.013329 0.0128412 0.0123426 0.0120087 0.0114062 0.0110109 0.0105674 0.00996759 0.00939981 0.00915866 0.00910538 0.00901191 0.00885597 0.00869065 0.00838353 0.0081929 0.00802249 0.00786878 0.00765642 0.00737986 0.00724209 0.0070506 0.00682984 0.00663455 0.00642219 0.00634154 0.0061844 0.00600684 0.00595818 0.00597189 0.00583396 0.00565269 0.00549284 0.0055648 0.00560428 0.0055543 0.00547546 0.00534282 0.00525111 0.00516472 0.00511417 0.0050389 0.00489088 0.00493793 0.00483317 0.00461983 0.00449207 0.00443156 0.00430677 0.0042057 0.00405014 0.00387845 0.00374779 0.00357138 0.00342452 0.00337123 0.00335961 0.00323454 0.00312745 0.00305235 0.00289468 0.00269384 0.00256415 0.00248758 0.00241326 0.0022913 0.00212982 0.00196984 0.00186362 0.00177617 0.00165039 0.0015478 0.0014637 0.00141277 0.00131581 0.00117521 0.00111428 0.00107623 0.00100743 0.000962897 0.000933394 0.000884043 0.00088834 0.000807511
255.5075 0.00025 1.66374 0.273568 0.0898916 0.053002 0.0408267 0.0340602 0.029071 0.0248584 0.0222753 0.0203434 0.0187136 0.0172962 0.0163537 0.015528 0.0147045 0.0138174 0.0133323 0.0128562 0.0123581 0.0120053 0.0113946 0.0110155 0.010588 0.00998902 0.00941016 0.00915996 0.00910564 0.0090228 0.00886343 0.00867682 0.0083834 0.00819644 0.00802212 0.00787174 0.00765522 0.00738779 0.00724451 0.00705123 0.00682296 0.0066243 0.00640689 0.00632883 0.00618071 0.00600494 0.00595022 0.0059633 0.00582648 0.00565687 0.00549488 0.0055665 0.00560974 0.00555146 0.00546801 0.00534847 0.00526325 0.00517698 0.00512314 0.00504342 0.00489887 0.00494718 0.00484121 0.00463004 0.00449471 0.00442686 0.00430298 0.00421066 0.00405549 0.00388015 0.00374784 0.00357001 0.00342452 0.00337054 0.00335351 0.00322985 0.00311908 0.00304428 0.00289363 0.00269483 0.00256278 0.00248625 0.00241213 0.00229128 0.0021337 0.00197236 0.00186461 0.00177842 0.0016512 0.0015479 0.00146312 0.00141287 0.00131702 0.00117737 0.00111443 0.00107666 0.00100856 0.000963277 0.000934963 0.000885199 0.000889599 0.000808002
255.51 0.00025 1.66393 0.273793 0.0899752 0.0530631 0.0408762 0.0340523 0.0291282 0.024872 0.0222529 0.020333 0.0187157 0.0172856 0.0163233 0.0155106 0.0147207 0.0138318 0.0133318 0.012876 0.0123712 0.0120046 0.0113828 0.0110161 0.0106075 0.0100086 0.00942191 0.00916616 0.00910471 0.00903049 0.00886929 0.00866135 0.00838334 0.00820055 0.00801947 0.0078766 0.00765637 0.0073939 0.0072474 0.00705101 0.00681884 0.00661465 0.00639435 0.00631815 0.00617782 0.00600446 0.00594483 0.00595446 0.00582013 0.00565906 0.00550049 0.00556762 0.00561839 0.00555061 0.00545856 0.00535202 0.00527518 0.00519005 0.00513314 0.00504764 0.00490496 0.00495598 0.00484741 0.00464255 0.00449765 0.00442153 0.00429955 0.0042149 0.00406161 0.00388218 0.00374836 0.00356837 0.00342519 0.00336931 0.00334734 0.00322627 0.0031121 0.00303621 0.00289266 0.00269576 0.00256188 0.0024853 0.00241132 0.00229146 0.00213675 0.00197511 0.00186597 0.00178013 0.00165272 0.00154787 0.0014625 0.00141208 0.00131812 0.00117967 0.00111484 0.00107703 0.00100954 0.000964126 0.000936816 0.000886228 0.00089064 0.000808456
255.5125 0.00025 1.66414 0.27361 0.0900673 0.0530903 0.0409134 0.0340335 0.0291734 0.0248909 0.0222251 0.0203191 0.018714 0.0172838 0.0162968 0.0154914 0.0147262 0.0138422 0.0133318 0.0128921 0.0123861 0.012001 0.0113725 0.0110175 0.0106309 0.010028 0.00943632 0.00917273 0.00910351 0.0090407 0.00887623 0.0086482 0.00837886 0.00820604 0.00801592 0.00787965 0.00765458 0.00739825 0.00725064 0.00705135 0.00681196 0.00660158 0.0063806 0.00630779 0.00617359 0.00600324 0.00594019 0.00594613 0.00581318 0.00566003 0.00550409 0.00556905 0.00562445 0.00555121 0.00545412 0.0053547 0.00528557 0.00520433 0.00514439 0.00505588 0.00491307 0.00496483 0.00485353 0.00465359 0.00450091 0.00441725 0.00429504 0.00421801 0.00406801 0.00388578 0.00374891 0.00356703 0.00342485 0.00336747 0.00334035 0.00322193 0.0031061 0.00302812 0.00289094 0.00269787 0.00256126 0.00248401 0.00241068 0.00229074 0.00214001 0.00197777 0.00186724 0.00178264 0.00165356 0.00154817 0.00146256 0.00141147 0.00131879 0.00118211 0.00111482 0.00107749 0.00101068 0.00096473 0.000938498 0.000887442 0.000891816 0.000809237
255.515 0.00025 1.66436 0.273382 0.0902362 0.0531503 0.040949 0.0340196 0.0292156 0.0249064 0.0222172 0.0203109 0.0187145 0.0172805 0.0162751 0.0154748 0.014736 0.0138548 0.0133322 0.0129107 0.0124009 0.0119975 0.0113596 0.011015 0.0106494 0.0100456 0.00945242 0.00918098 0.00910345 0.00904831 0.00888093 0.00863508 0.00837795 0.00821186 0.00801238 0.00788349 0.00765139 0.00740353 0.0072555 0.0070507 0.00680828 0.00658976 0.00636844 0.00629768 0.00616844 0.00600088 0.00593421 0.00593698 0.0058062 0.00566113 0.00550766 0.00557018 0.00563139 0.00555094 0.00545018 0.0053574 0.00529661 0.00521578 0.00515595 0.00506242 0.00492076 0.00497098 0.00486094 0.00466515 0.00450494 0.00441143 0.00428878 0.00422164 0.00407245 0.00388824 0.00374889 0.00356535 0.00342551 0.00336693 0.00333405 0.00321785 0.00309898 0.00302023 0.00288948 0.00269971 0.00256115 0.00248272 0.0024097 0.00229012 0.00214296 0.0019805 0.00186903 0.00178501 0.00165465 0.00154857 0.00146241 0.00141071 0.00131934 0.00118471 0.00111541 0.00107759 0.00101193 0.000965539 0.000940077 0.000888497 0.000892779 0.000809849
255.5175 0.00025 1.6646 0.273713 0.0902718 0.0531853 0.040992 0.0340079 0.0292664 0.0249435 0.0222057 0.0203112 0.0187145 0.0172794 0.0162513 0.0154553 0.0147405 0.0138675 0.013332 0.0129228 0.0124193 0.0119979 0.0113539 0.0110138 0.0106662 0.0100657 0.00946802 0.00918864 0.00910677 0.00905513 0.00888344 0.00861931 0.00837371 0.00821755 0.00801343 0.00789058 0.00765045 0.007404 0.00726103 0.00705242 0.00680507 0.00657867 0.00635451 0.00629027 0.00616641 0.00600114 0.00592915 0.00592977 0.00580101 0.00566159 0.00551129 0.00557298 0.00563731 0.00555187 0.00544541 0.00535962 0.00530394 0.00522827 0.0051675 0.005069 0.00493128 0.00497596 0.00486885 0.00467786 0.0045095 0.00440656 0.00428347 0.00422421 0.00407818 0.00389165 0.00374939 0.00356384 0.00342641 0.00336682 0.00332645 0.00321392 0.0030932 0.00301245 0.00288839 0.00270099 0.00256113 0.00248144 0.00240848 0.00228961 0.00214648 0.00198297 0.00187068 0.00178677 0.00165622 0.00154856 0.00146233 0.00140994 0.0013197 0.00118812 0.00111619 0.0010781 0.00101299 0.000966206 0.000941609 0.000889704 0.000893712 0.000810567
255.52 0.00025 1.66487 0.273783 0.0903303 0.0532424 0.0410286 0.0340056 0.0293113 0.0249759 0.0221983 0.0203128 0.0187164 0.0172823 0.0162422 0.0154418 0.0147488 0.0138783 0.0133302 0.0129331 0.0124348 0.0119971 0.0113444 0.0110095 0.0106779 0.0100833 0.00948859 0.00920135 0.00911269 0.00906265 0.00888583 0.00860317 0.00837056 0.00822148 0.00801258 0.00789539 0.00764966 0.0074053 0.00726698 0.00705492 0.00680076 0.00656739 0.00634176 0.00628384 0.00616399 0.00599739 0.0059259 0.0059229 0.00579632 0.00566126 0.00551656 0.00557411 0.005644 0.00555442 0.00544072 0.00536124 0.00531184 0.00523938 0.00517969 0.00507687 0.00493956 0.00498306 0.00487611 0.00468784 0.00451541 0.00440141 0.00427783 0.00422669 0.00408412 0.00389573 0.00375109 0.00356312 0.00342837 0.00336545 0.00331804 0.00320875 0.00308764 0.00300531 0.00288633 0.00270257 0.00256075 0.00248091 0.00240712 0.002289 0.00214941 0.00198604 0.00187242 0.00178916 0.00165771 0.00154927 0.00146235 0.00140981 0.00132024 0.00119063 0.00111667 0.00107797 0.00101408 0.000966755 0.00094303 0.000890901 0.000894953 0.000811469
255.5225 0.00025 1.66512 0.273767 0.0902935 0.0533014 0.0410591 0.0339621 0.0293501 0.0250168 0.0221909 0.0203052 0.0187171 0.0172876 0.0162318 0.0154295 0.0147524 0.0138862 0.013331 0.0129437 0.0124528 0.0119927 0.0113403 0.0110063 0.01069 0.0101022 0.00950556 0.00921157 0.00911927 0.00907165 0.00888518 0.00858723 0.00836603 0.00822708 0.00801514 0.00790445 0.00764827 0.00740514 0.00727291 0.00705435 0.00679562 0.00656034 0.00633296 0.00627816 0.0061603 0.00599369 0.00592357 0.00591282 0.00578877 0.00566019 0.0055209 0.00557535 0.00564798 0.00555803 0.00543799 0.00536323 0.00531725 0.00525058 0.00519196 0.00508501 0.00494826 0.00498753 0.00488183 0.00470122 0.00452209 0.00439761 0.00427213 0.00422828 0.00408945 0.00390004 0.00375309 0.00356265 0.00342909 0.0033655 0.00331116 0.00320414 0.00308321 0.00299825 0.00288397 0.002704 0.00256061 0.00248027 0.00240665 0.00228908 0.00215273 0.00198862 0.00187417 0.00179085 0.00165856 0.00154936 0.0014623 0.0014088 0.00132105 0.00119347 0.00111741 0.00107798 0.0010153 0.000967262 0.00094459 0.00089203 0.000895803 0.000812237
255.525 0.00025 1.66537 0.273809 0.0902517 0.053335 0.0411139 0.0339619 0.0293749 0.0250683 0.0221978 0.0203056 0.0187186 0.0172869 0.0162295 0.0154182 0.0147632 0.01389 0.0133302 0.0129493 0.0124643 0.0119948 0.0113398 0.0110072 0.0106962 0.0101221 0.00952428 0.00922276 0.00912685 0.00908016 0.00888208 0.00856922 0.0083642 0.00823153 0.00802008 0.00791073 0.00764303 0.00740301 0.00727745 0.00705614 0.00679369 0.00655178 0.00632197 0.00627203 0.00615683 0.0059922 0.00591883 0.00590412 0.00578299 0.00565912 0.00552373 0.00557693 0.00565119 0.00556108 0.00543585 0.00536503 0.00532223 0.00526086 0.00520439 0.00509518 0.00496053 0.00499095 0.00488878 0.00471484 0.00452846 0.0043941 0.00426653 0.00423039 0.00409549 0.00390506 0.00375733 0.00356168 0.00342982 0.00336498 0.0033024 0.00319832 0.00307887 0.00299032 0.00288123 0.00270522 0.00256092 0.00247956 0.00240543 0.00228796 0.00215468 0.00199152 0.00187621 0.00179304 0.00166032 0.00154958 0.0014622 0.0014085 0.00132114 0.00119577 0.00111861 0.00107797 0.00101653 0.000968219 0.000945929 0.00089333 0.000896795 0.000813291
255.5275 0.00025 1.66561 0.273718 0.0902496 0.0533554 0.0411603 0.0339436 0.0293848 0.0251257 0.0222145 0.0203013 0.0187246 0.01731 0.0162287 0.0154181 0.0147644 0.0138919 0.0133349 0.0129506 0.0124766 0.0119933 0.0113441 0.0110012 0.0107008 0.0101405 0.00954103 0.0092368 0.00913874 0.00909271 0.00887764 0.0085525 0.00836308 0.00823629 0.00802615 0.00791861 0.00763858 0.00739896 0.00728261 0.00705612 0.00679052 0.0065429 0.0063132 0.00626892 0.00615271 0.00598673 0.00591409 0.00589602 0.00577744 0.00565599 0.00552907 0.00557801 0.00565332 0.00556356 0.00543471 0.00536803 0.00532555 0.00526976 0.00521641 0.00510464 0.00497141 0.00499392 0.00489745 0.0047263 0.00453551 0.00439047 0.00426246 0.00422921 0.00409935 0.00390979 0.00376049 0.0035615 0.0034312 0.00336426 0.00329449 0.00319385 0.00307407 0.00298538 0.00287888 0.00270634 0.00256061 0.00247923 0.00240465 0.0022868 0.00215739 0.00199403 0.00187792 0.00179436 0.00166188 0.00155013 0.00146193 0.00140801 0.00132068 0.0011985 0.00111962 0.0010779 0.0010176 0.000968888 0.000947478 0.000894726 0.000897751 0.000814242
255.53 0.00025 1.66582 0.273977 0.0904245 0.0533786 0.0412028 0.0339411 0.0294008 0.0251726 0.0222293 0.0202929 0.0187258 0.0173121 0.0162339 0.0154215 0.0147622 0.0138996 0.0133374 0.0129533 0.0124827 0.0119941 0.011351 0.0109981 0.0107037 0.0101603 0.0095605 0.00924913 0.0091472 0.00910219 0.00887218 0.00853545 0.00836227 0.00824066 0.00803568 0.00792495 0.00763481 0.00739548 0.00728459 0.00706094 0.00679158 0.0065351 0.00630309 0.0062645 0.0061502 0.00598226 0.00591456 0.00588569 0.00577256 0.00565364 0.00553073 0.00557925 0.00565509 0.00556665 0.0054335 0.00537019 0.00532948 0.00527855 0.00522748 0.00511521 0.0049853 0.00499717 0.00490431 0.00473887 0.00454327 0.00438717 0.00425705 0.00422901 0.00410353 0.00391428 0.00376454 0.0035609 0.00343164 0.00336455 0.0032864 0.00318836 0.00306962 0.00297884 0.00287583 0.00270759 0.00256023 0.00247928 0.00240383 0.00228535 0.00215935 0.00199715 0.00188019 0.00179636 0.00166378 0.00155045 0.00146163 0.00140737 0.00132049 0.0012014 0.0011209 0.00107764 0.00101858 0.000969449 0.000948996 0.000896137 0.000898618 0.000815333
255.5325 0.00025 1.66602 0.274073 0.0904727 0.0534055 0.0412442 0.0339471 0.0294032 0.0252225 0.0222598 0.020287 0.0187295 0.0173242 0.0162473 0.0154196 0.0147607 0.0139024 0.0133424 0.0129567 0.0124816 0.0119939 0.011361 0.0109956 0.0107019 0.010176 0.00958021 0.00926325 0.00915759 0.00911831 0.00886481 0.00852013 0.00836383 0.00824673 0.00804516 0.0079313 0.00762934 0.00739129 0.00728612 0.00706246 0.00679105 0.00653096 0.00629423 0.0062592 0.00614625 0.00597636 0.00591276 0.00587694 0.00576604 0.00565006 0.00553218 0.00558085 0.00565527 0.0055707 0.00543654 0.00537235 0.0053335 0.00528743 0.00523992 0.00512467 0.00499769 0.00499922 0.0049091 0.00475054 0.00455064 0.00438487 0.00425157 0.00422735 0.00410687 0.00392097 0.00376855 0.00356153 0.00343263 0.00336336 0.00327798 0.00318215 0.00306534 0.00297344 0.0028733 0.00270754 0.00255987 0.00247895 0.00240286 0.00228448 0.00216157 0.00199959 0.00188189 0.0017983 0.00166528 0.00155151 0.00146158 0.00140643 0.00132068 0.00120398 0.0011221 0.00107742 0.00101935 0.000970461 0.000950429 0.000897661 0.000899505 0.000816251
255.535 0.00025 1.6662 0.274473 0.0904473 0.053432 0.0412943 0.0339567 0.0293982 0.0252743 0.0223077 0.0202914 0.0187299 0.0173302 0.0162575 0.015428 0.0147571 0.013904 0.0133438 0.0129545 0.0124809 0.0119906 0.011375 0.010996 0.010697 0.0101892 0.00960265 0.00928042 0.0091687 0.00912938 0.00885877 0.00850672 0.00836637 0.00825188 0.00805625 0.00793754 0.00762482 0.00738916 0.00729133 0.00706762 0.00679024 0.00652552 0.00628668 0.00625362 0.00614146 0.00597304 0.00590919 0.00586755 0.00576055 0.00564691 0.00553334 0.00558075 0.00565414 0.00557445 0.00544138 0.00537611 0.00533642 0.00529549 0.00525025 0.00513456 0.00501144 0.00500165 0.00491523 0.00476265 0.00455877 0.00438528 0.00424761 0.0042233 0.00410892 0.00392666 0.00377206 0.00356145 0.0034338 0.00336225 0.00326989 0.00317594 0.00306146 0.00296786 0.00287094 0.00270795 0.00255969 0.00247992 0.0024013 0.00228386 0.00216376 0.00200223 0.00188399 0.00180024 0.00166697 0.00155174 0.00146153 0.00140584 0.0013204 0.00120659 0.00112356 0.00107705 0.00102031 0.000971226 0.000951846 0.000898973 0.000900428 0.000817246
255.5375 0.00025 1.66634 0.274389 0.0904694 0.0534775 0.0413455 0.0339744 0.0293926 0.0253271 0.022358 0.0202961 0.018727 0.0173237 0.0162653 0.0154352 0.0147532 0.013913 0.0133519 0.0129541 0.0124793 0.0119873 0.0113919 0.0109981 0.0106923 0.0101989 0.00962146 0.00930112 0.00918094 0.00914398 0.00885215 0.00849634 0.00836619 0.00825641 0.00806907 0.00794478 0.00762195 0.00738799 0.00729365 0.00706991 0.00679065 0.00652318 0.00628051 0.00624838 0.00613526 0.00596949 0.00591035 0.00585742 0.0057544 0.00564276 0.00553436 0.00558139 0.00565282 0.00557993 0.00544411 0.00537917 0.00533959 0.00530265 0.00526025 0.00514517 0.00502553 0.00500423 0.00491839 0.00477393 0.00456676 0.00438297 0.00424327 0.00421963 0.00411039 0.00393358 0.00377782 0.00356164 0.00343489 0.00336104 0.003262 0.00316937 0.00305798 0.00296298 0.00286894 0.00270727 0.00255924 0.00248043 0.00240026 0.00228295 0.00216571 0.00200487 0.00188585 0.00180188 0.00166833 0.00155264 0.00146119 0.00140551 0.0013197 0.00120917 0.0011255 0.00107721 0.00102097 0.000971714 0.000953537 0.000900496 0.00090128 0.000818216
255.54 0.00025 1.66646 0.274384 0.0904502 0.0534754 0.0414024 0.0339949 0.029395 0.0253595 0.0224077 0.0203045 0.018722 0.017316 0.0162837 0.0154575 0.0147479 0.0139106 0.0133538 0.0129516 0.012475 0.0119783 0.0114045 0.0110017 0.0106859 0.0102068 0.00964524 0.00931722 0.00918943 0.00915432 0.00884464 0.00848399 0.00836926 0.00826315 0.00808143 0.00794858 0.00762015 0.00738733 0.00729668 0.00707211 0.00679066 0.00652152 0.00627396 0.00624241 0.00612953 0.00596258 0.00591101 0.00585002 0.0057501 0.00563993 0.00553564 0.00558 0.00564943 0.00558713 0.00544927 0.00538362 0.00534309 0.00530993 0.00527063 0.00515615 0.00503775 0.00500798 0.00492367 0.00478623 0.00457559 0.00438312 0.00423929 0.00421567 0.00411003 0.0039398 0.00378269 0.0035626 0.00343742 0.0033596 0.00325389 0.00316274 0.003055 0.00295839 0.002866 0.00270779 0.00255864 0.00248121 0.00239868 0.0022811 0.00216788 0.00200739 0.0018877 0.00180344 0.00167015 0.00155337 0.00146109 0.00140488 0.00131922 0.0012112 0.00112685 0.00107715 0.00102165 0.00097263 0.000954799 0.000901725 0.000902065 0.000819207
255.5425 0.00025 1.66656 0.274452 0.0904522 0.0535071 0.0414565 0.0340351 0.0293807 0.0253963 0.0224682 0.0203311 0.0187197 0.0173122 0.0162926 0.0154703 0.0147423 0.0139086 0.0133597 0.0129499 0.0124695 0.0119716 0.0114216 0.0110078 0.0106763 0.0102145 0.00966519 0.00933603 0.00919705 0.00916214 0.00884026 0.00847481 0.00837232 0.00826925 0.00809177 0.00795214 0.00761665 0.00738803 0.00729707 0.00707294 0.00679201 0.00652159 0.00627108 0.00623482 0.00612202 0.00595749 0.00591131 0.00584143 0.00574318 0.0056364 0.00553795 0.00557874 0.00564478 0.0055911 0.00545586 0.00538611 0.00534732 0.0053158 0.00527915 0.00516994 0.00505249 0.005012 0.00492636 0.00479487 0.00458547 0.00438353 0.0042354 0.00421226 0.00410806 0.00394647 0.00378776 0.00356528 0.00343927 0.00335851 0.00324479 0.00315485 0.00305174 0.00295568 0.0028628 0.00270674 0.00255872 0.00248151 0.00239757 0.00228094 0.00216974 0.00201042 0.0018902 0.00180467 0.0016718 0.00155469 0.00146098 0.00140427 0.00131887 0.00121349 0.0011287 0.00107717 0.00102232 0.000973272 0.000956093 0.000903342 0.00090333 0.00082016
255.545 0.00025 1.66663 0.274816 0.0904923 0.0535017 0.0414829 0.0340826 0.0293751 0.0254225 0.0225248 0.0203458 0.0187127 0.0173021 0.0163035 0.0154881 0.0147408 0.0139081 0.0133662 0.0129489 0.0124643 0.0119643 0.0114375 0.0110137 0.0106673 0.010221 0.00969279 0.00935095 0.00920846 0.00916862 0.00883729 0.00847041 0.00837566 0.00827547 0.0081056 0.00795366 0.00761448 0.00738622 0.00729621 0.00707147 0.00679129 0.00652395 0.00626604 0.00622783 0.00611544 0.0059524 0.00591171 0.00583386 0.00573734 0.00563311 0.00553974 0.00557857 0.00563971 0.00559628 0.00546164 0.00539102 0.00535133 0.00532285 0.00528806 0.00517984 0.00506685 0.00501802 0.00492956 0.00480427 0.0045945 0.00438308 0.00423296 0.00420898 0.00410495 0.00395237 0.00379472 0.00356647 0.00344127 0.00335723 0.00323755 0.00314721 0.00304766 0.00295196 0.00286026 0.00270647 0.00255811 0.00248276 0.00239627 0.0022799 0.0021713 0.00201359 0.00189213 0.00180615 0.00167304 0.00155585 0.00146118 0.00140376 0.0013185 0.0012155 0.0011304 0.00107699 0.00102302 0.000974673 0.000957267 0.00090477 0.000904262 0.000821306
255.5475 0.00025 1.66669 0.274777 0.0905028 0.0535338 0.041551 0.0341249 0.0293841 0.0254576 0.0225874 0.0203718 0.0187126 0.0172845 0.0163191 0.0155076 0.0147412 0.0139085 0.0133718 0.0129475 0.0124621 0.011955 0.0114541 0.0110194 0.0106601 0.0102244 0.00971657 0.00937032 0.00921444 0.00917158 0.00883556 0.00846954 0.00837882 0.00827968 0.0081171 0.00795699 0.00761138 0.00738742 0.00729946 0.00707064 0.00679035 0.0065232 0.00626236 0.00622121 0.00610783 0.00594917 0.00591228 0.00582661 0.00573099 0.00562906 0.00554218 0.0055775 0.00563297 0.00560168 0.0054683 0.00539439 0.00535673 0.00532955 0.00529587 0.00518979 0.00508127 0.00502513 0.00493182 0.00481494 0.0046033 0.00438361 0.00423028 0.00420493 0.00410046 0.00395581 0.00380049 0.00356941 0.0034435 0.0033567 0.00322855 0.0031395 0.00304402 0.00294823 0.00285768 0.0027051 0.00255706 0.00248234 0.00239517 0.0022785 0.00217299 0.00201617 0.00189465 0.0018074 0.00167525 0.00155741 0.00146128 0.00140323 0.00131893 0.0012175 0.00113227 0.00107689 0.00102327 0.000975918 0.000958764 0.000906433 0.000905208 0.000822344
255.55 0.00025 1.66674 0.27491 0.0904444 0.0535766 0.041629 0.0341638 0.0294033 0.0254767 0.0226635 0.0204014 0.0187112 0.0172746 0.0163243 0.0155298 0.0147393 0.0139053 0.0133751 0.0129478 0.0124588 0.0119381 0.0114674 0.0110267 0.0106508 0.0102308 0.00974368 0.0093893 0.00922229 0.00917258 0.00883485 0.00847251 0.00838516 0.00828622 0.00813233 0.00795697 0.00761128 0.00738937 0.00729873 0.00707033 0.00679391 0.00652418 0.00626108 0.00621422 0.00609702 0.00594472 0.00591471 0.00581788 0.00572416 0.00562525 0.00554462 0.00557585 0.00562739 0.00560749 0.00547683 0.00539871 0.00536192 0.00533461 0.0053039 0.00519929 0.00509736 0.00503236 0.00493225 0.00482259 0.00461183 0.00438413 0.00422956 0.00420208 0.00409639 0.00396059 0.00380579 0.00357103 0.00344635 0.003356 0.00322157 0.00313156 0.00303949 0.00294592 0.00285576 0.00270435 0.00255565 0.00248314 0.0023935 0.00227837 0.00217422 0.00201893 0.00189748 0.00180866 0.00167649 0.00155864 0.0014615 0.00140264 0.00131821 0.0012198 0.00113413 0.00107695 0.00102353 0.000976713 0.000960132 0.000907847 0.000906176 0.000823426
255.5525 0.00025 1.66676 0.274954 0.0904921 0.0535903 0.0416853 0.0342494 0.0294113 0.0254966 0.0227248 0.0204403 0.0187144 0.0172567 0.0163289 0.015541 0.0147426 0.0139048 0.0133766 0.0129478 0.0124554 0.0119185 0.0114791 0.0110334 0.010641 0.0102345 0.00976868 0.00940732 0.00923034 0.00917133 0.00883517 0.00847924 0.00838786 0.00829005 0.00814498 0.00795741 0.0076087 0.00739525 0.00729889 0.00706952 0.00679344 0.00652787 0.0062601 0.00620615 0.00608561 0.00594161 0.0059164 0.00581005 0.00571703 0.00562184 0.00554626 0.00557411 0.00561833 0.005613 0.00548509 0.00540184 0.00536668 0.00533989 0.00531153 0.00521025 0.00511152 0.00503982 0.00493105 0.00482797 0.00462136 0.00438625 0.00422815 0.00419953 0.0040918 0.00396384 0.00381293 0.0035741 0.00345004 0.00335522 0.00321404 0.00312309 0.0030358 0.00294366 0.00285442 0.00270379 0.00255402 0.0024831 0.00239237 0.00227749 0.00217543 0.00202208 0.0019 0.00180964 0.00167804 0.0015605 0.00146167 0.00140268 0.00131793 0.00122129 0.00113604 0.00107717 0.00102379 0.000977955 0.000961535 0.000909178 0.000906884 0.000824575
255.555 0.00025 1.66679 0.275253 0.090499 0.0536205 0.041751 0.0343242 0.0294468 0.0255038 0.0227767 0.0204836 0.0187233 0.0172403 0.0163236 0.0155582 0.014751 0.0139013 0.013377 0.012947 0.0124539 0.0119047 0.0114891 0.0110407 0.0106303 0.0102387 0.00979434 0.00942339 0.009237 0.00916827 0.00883221 0.00848977 0.00839693 0.00829232 0.00815572 0.00795617 0.00760804 0.00739984 0.00730181 0.00706728 0.00679132 0.00652903 0.00626238 0.00619763 0.00607521 0.00593837 0.00591572 0.00580177 0.00571206 0.00561834 0.00555049 0.0055723 0.00560973 0.00561836 0.00549179 0.0054049 0.00537306 0.0053462 0.00531917 0.00521961 0.0051252 0.00504904 0.00493091 0.00483248 0.00462999 0.00438821 0.00422638 0.0041978 0.00408634 0.00396433 0.00382006 0.00357924 0.00345321 0.00335523 0.003207 0.00311574 0.00303242 0.0029416 0.00285268 0.00270283 0.00255284 0.00248309 0.00239158 0.00227645 0.00217638 0.00202511 0.00190282 0.00181111 0.00167983 0.00156187 0.00146182 0.00140193 0.00131759 0.00122291 0.00113796 0.00107744 0.00102424 0.000978593 0.000962958 0.000910904 0.00090787 0.000825924
255.5575 0.00025 1.66682 0.275457 0.0904422 0.0536441 0.0418003 0.0343905 0.029483 0.0255144 0.0228347 0.0205254 0.0187333 0.0172249 0.0163185 0.0155677 0.0147593 0.0138963 0.0133823 0.0129508 0.0124487 0.0118895 0.0114915 0.0110515 0.0106279 0.0102419 0.00982238 0.00943996 0.00924298 0.00916683 0.00883399 0.00850367 0.00840559 0.00829723 0.00817016 0.00795158 0.00760636 0.0074071 0.0073007 0.00706068 0.00679032 0.00652973 0.00626547 0.0061901 0.00606254 0.00593523 0.00591813 0.00579572 0.00570763 0.0056154 0.00555195 0.00557166 0.00560145 0.00562435 0.00549939 0.00540903 0.00537989 0.00535286 0.00532617 0.00522921 0.00514111 0.00505828 0.00492909 0.00483587 0.0046401 0.00439094 0.00422532 0.00419463 0.00408014 0.0039648 0.00382469 0.00358172 0.00345742 0.0033546 0.0031999 0.00310793 0.00302814 0.00294157 0.00285101 0.00270184 0.00255149 0.00248317 0.0023901 0.00227583 0.00217735 0.00202797 0.00190579 0.00181182 0.00168142 0.00156369 0.00146298 0.00140124 0.00131706 0.00122421 0.00113984 0.00107785 0.00102428 0.000979339 0.000964462 0.000912421 0.0009087 0.000827076
255.56 0.00025 1.66683 0.275363 0.0904007 0.0536714 0.0418915 0.0344526 0.0295196 0.0255355 0.0228896 0.0205722 0.0187519 0.0172076 0.0163078 0.0155765 0.0147729 0.0138972 0.0133804 0.0129546 0.0124409 0.0118719 0.011495 0.0110602 0.0106264 0.0102495 0.00984446 0.00945163 0.0092474 0.00916137 0.0088365 0.00852498 0.00841372 0.00829986 0.00818035 0.00794918 0.00760432 0.00741332 0.0072987 0.00705717 0.00678978 0.00653132 0.00626887 0.00618215 0.00605009 0.0059327 0.0059161 0.0057921 0.00570319 0.00561303 0.00555828 0.00556923 0.00559478 0.00562873 0.00550792 0.00541229 0.00538613 0.00535897 0.0053347 0.00523889 0.00515557 0.00506697 0.00492962 0.0048402 0.00464721 0.00439333 0.00422618 0.00419135 0.00407408 0.00396423 0.00382835 0.00358619 0.0034606 0.00335388 0.00319255 0.00309903 0.00302355 0.00294033 0.00284939 0.00270114 0.00254988 0.00248293 0.00238883 0.00227492 0.00217835 0.00203113 0.00190943 0.00181291 0.00168262 0.00156559 0.00146337 0.00140064 0.00131659 0.00122586 0.00114197 0.00107789 0.00102432 0.00098024 0.000965887 0.000914187 0.000909436 0.000828136
255.5625 0.00025 1.66685 0.275356 0.0903256 0.0537108 0.0419396 0.034541 0.0295709 0.0255511 0.0229387 0.0206185 0.0187845 0.0172016 0.0162849 0.0155821 0.0147836 0.0138994 0.0133751 0.0129568 0.0124307 0.0118478 0.011494 0.0110705 0.0106216 0.0102535 0.00986391 0.00946382 0.0092526 0.00915398 0.00883643 0.00854591 0.00842368 0.00830243 0.00819035 0.00794625 0.00760119 0.00742312 0.00729701 0.00704929 0.00678604 0.0065327 0.00627145 0.00617516 0.00603726 0.00592887 0.00591593 0.00578601 0.00569969 0.00560841 0.00555943 0.00556722 0.00558621 0.0056333 0.0055156 0.00541653 0.0053921 0.00536782 0.00534253 0.00524911 0.00516885 0.0050777 0.00492959 0.00484232 0.00465406 0.00439689 0.00422655 0.00418864 0.00406769 0.00396385 0.00383113 0.00359076 0.00346515 0.00335434 0.00318675 0.00308998 0.00301845 0.00293795 0.00284913 0.00270003 0.00254814 0.00248231 0.0023875 0.00227395 0.00217868 0.00203374 0.00191259 0.00181412 0.00168406 0.00156759 0.00146421 0.0014002 0.00131687 0.00122748 0.00114389 0.00107831 0.00102447 0.000980673 0.000967255 0.00091575 0.000910425 0.000829527
255.565 0.00025 1.66687 0.275422 0.0903324 0.0537595 0.0420175 0.0346278 0.029629 0.0255814 0.022987 0.0206742 0.0188051 0.0172083 0.0162653 0.0155819 0.014804 0.0139035 0.0133722 0.012956 0.0124228 0.0118295 0.0114918 0.0110776 0.0106216 0.0102626 0.00987899 0.00947494 0.00925863 0.00914789 0.00883934 0.00856917 0.00843278 0.00830537 0.00820025 0.00794236 0.00759955 0.0074343 0.00729673 0.00703946 0.00678413 0.00653554 0.0062745 0.00616713 0.00602514 0.00592435 0.00591449 0.0057812 0.00569503 0.00560556 0.00556164 0.00556153 0.00557821 0.00563745 0.00552593 0.00542009 0.00539917 0.00537537 0.00535216 0.0052588 0.00518248 0.00508809 0.00492986 0.00484337 0.00466191 0.00440048 0.00422834 0.00418591 0.00406207 0.0039618 0.00383455 0.00359695 0.0034691 0.00335356 0.00318061 0.0030812 0.00301288 0.00293702 0.00284854 0.00269991 0.00254599 0.00248169 0.00238679 0.00227296 0.00217922 0.00203669 0.00191596 0.00181444 0.00168542 0.00156975 0.00146498 0.00139967 0.0013167 0.00122847 0.00114576 0.00107885 0.0010246 0.000981378 0.00096879 0.000917614 0.000911337 0.000830604
255.5675 0.00025 1.66689 0.275506 0.090381 0.0538063 0.0421006 0.0347219 0.0296949 0.0256176 0.0230234 0.0207256 0.0188284 0.017193 0.0162383 0.0155766 0.0148226 0.0139105 0.0133724 0.0129568 0.0124169 0.0118084 0.0114839 0.0110894 0.0106226 0.0102719 0.00989286 0.00948364 0.00926701 0.00914374 0.00884455 0.00859619 0.00844414 0.00830632 0.00820925 0.00793954 0.00759717 0.00744411 0.00729528 0.00703298 0.00677979 0.00653784 0.00627865 0.00615966 0.00601638 0.00592165 0.00591495 0.00577851 0.0056907 0.00560219 0.00556344 0.00555843 0.00556956 0.00564077 0.00553421 0.00542373 0.00540527 0.00538426 0.00536191 0.0052688 0.00519538 0.00509642 0.00493116 0.0048424 0.00466892 0.00440594 0.0042314 0.00418327 0.00405757 0.0039604 0.00383626 0.00360258 0.00347431 0.00335387 0.00317562 0.00307243 0.00300806 0.00293503 0.00284749 0.00269919 0.00254393 0.00248054 0.00238514 0.00227244 0.00217968 0.00203934 0.00191994 0.00181591 0.00168616 0.00157155 0.00146628 0.00139899 0.00131717 0.00122965 0.00114765 0.00107931 0.0010246 0.000981576 0.000969967 0.000919593 0.000912198 0.000831871