255.5025 0.00025 1.66697 0.272379 0.0894119 0.0529449 0.0410416 0.0344073 0.029406 0.0251027 0.0224166 0.0203602 0.0186878 0.0173241 0.0164239 0.0156485 0.014718 0.0137406 0.0133379 0.0128741 0.0123416 0.0120318 0.0114116 0.011001 0.0105522 0.00989263 0.00925149 0.00909596 0.00910274 0.00899658 0.00886677 0.00874534 0.00841784 0.00818573 0.00803026 0.00787212 0.00768389 0.00736008 0.00726987 0.0070888 0.00683939 0.00662908 0.00640693 0.00637279 0.00621492 0.00602089 0.00595986 0.00598484 0.00583812 0.0056705 0.00551668 0.00564905 0.00568796 0.00560832 0.00556679 0.00542127 0.00533227 0.00524878 0.00519348 0.00512349 0.00500918 0.0050742 0.00495767 0.00471806 0.00453839 0.00448235 0.00434292 0.00424134 0.0040544 0.00387963 0.00374185 0.0035649 0.00342054 0.00338682 0.00337756 0.00326109 0.00316738 0.00309496 0.00294338 0.00273915 0.00260338 0.00253222 0.00246127 0.00233124 0.00215944 0.00199562 0.00190035 0.00182213 0.00169552 0.00159162 0.00150505 0.00146524 0.00137249 0.00122464 0.00114959 0.00111046 0.00103804 0.00099532 0.000962499 0.000910705 0.000900401 0.000825412
255.505 0.00025 1.66725 0.272174 0.0893769 0.0530381 0.0410779 0.0344291 0.0294489 0.0250913 0.0223834 0.0203506 0.0186776 0.0173106 0.0164008 0.0156294 0.014736 0.0137581 0.013342 0.0128929 0.0123527 0.0120335 0.0114042 0.0110022 0.0105684 0.00991143 0.00926274 0.0090937 0.00909819 0.00900413 0.00887927 0.0087355 0.0084153 0.00819048 0.00803218 0.00787296 0.00768527 0.0073691 0.00726958 0.00708388 0.00683553 0.00661907 0.00639112 0.00636146 0.00621386 0.00602085 0.00595646 0.00597491 0.00583168 0.00567589 0.00551836 0.00564507 0.00569685 0.0056035 0.00555874 0.00542837 0.00534539 0.00526196 0.00520147 0.00512467 0.00501644 0.00508535 0.00496436 0.00472678 0.00454007 0.00447524 0.00433839 0.00424622 0.00405851 0.00387944 0.00374186 0.00356352 0.00342131 0.00338572 0.00337236 0.00325606 0.0031581 0.00308709 0.00294315 0.0027401 0.0026022 0.00252972 0.00246062 0.0023309 0.00216322 0.00199893 0.00190266 0.00182383 0.00169613 0.00159146 0.00150494 0.00146453 0.0013739 0.00122748 0.00114998 0.00111111 0.00103964 0.000996815 0.000964081 0.000911932 0.00090199 0.000826532
255.5075 0.00025 1.66736 0.272315 0.0893748 0.0530969 0.0411013 0.0344181 0.0294908 0.0251002 0.0223454 0.0203486 0.0186729 0.0173065 0.0163721 0.0156111 0.0147524 0.0137754 0.0133409 0.0129068 0.0123713 0.0120318 0.0113907 0.0110062 0.0105834 0.00993448 0.00927812 0.00909538 0.00909488 0.00901394 0.00889188 0.00872345 0.008413 0.00819643 0.00803311 0.0078769 0.00768501 0.00737712 0.00727052 0.00708222 0.00683 0.0066095 0.00637465 0.0063495 0.00620985 0.00602016 0.00595142 0.00596482 0.00582302 0.00567973 0.00552096 0.00564421 0.00570483 0.00560047 0.00555043 0.0054337 0.00535784 0.0052746 0.00520944 0.00512651 0.00502326 0.00509372 0.00497218 0.00473803 0.0045435 0.00446773 0.00433399 0.00425152 0.00406444 0.00388061 0.00374214 0.00356203 0.00342206 0.0033859 0.00336565 0.00325046 0.0031475 0.00307827 0.00294203 0.00274136 0.00260091 0.00252775 0.00245919 0.00233098 0.00216736 0.00200213 0.00190423 0.0018259 0.00169679 0.00159112 0.00150452 0.00146444 0.00137507 0.00123043 0.00115062 0.00111161 0.0010411 0.00099725 0.000965682 0.000913125 0.000903617 0.000827796
255.51 0.00025 1.66754 0.272557 0.089491 0.053176 0.0411472 0.0343965 0.0295464 0.0251117 0.0223174 0.0203486 0.0186748 0.0173 0.016338 0.015586 0.0147708 0.0137941 0.0133373 0.0129244 0.0123886 0.01203 0.0113779 0.0110069 0.0105986 0.00995573 0.00929647 0.00910185 0.00909178 0.00901994 0.00890363 0.00870949 0.00841067 0.0082036 0.00803126 0.00788259 0.00768706 0.00738298 0.00727316 0.00707835 0.0068259 0.00660036 0.00636116 0.00633871 0.0062063 0.00601976 0.00594826 0.00595462 0.0058151 0.00568196 0.00552576 0.00564202 0.00571541 0.00559894 0.00554072 0.00543811 0.00537004 0.00528761 0.00521895 0.00512835 0.00502812 0.00510188 0.00497817 0.00475036 0.00454708 0.00445994 0.00432959 0.00425573 0.00407122 0.00388272 0.00374301 0.0035604 0.00342324 0.00338499 0.00335923 0.00324576 0.00313835 0.00306924 0.00294058 0.00274262 0.00260023 0.00252634 0.00245813 0.00233155 0.00217075 0.00200534 0.0019062 0.00182748 0.00169807 0.00159043 0.00150402 0.00146359 0.00137609 0.0012334 0.0011515 0.00111219 0.00104247 0.000998041 0.00096784 0.000914226 0.000905003 0.000828947
255.5125 0.00025 1.66772 0.272341 0.0896136 0.0531988 0.0411706 0.0343587 0.0295884 0.0251334 0.0222843 0.0203463 0.0186741 0.0172993 0.0163106 0.0155602 0.0147774 0.0138123 0.0133326 0.0129352 0.012405 0.0120252 0.0113674 0.0110056 0.0106163 0.00997831 0.00931784 0.00910958 0.00908802 0.00902747 0.00891516 0.00869737 0.0084038 0.0082127 0.00802904 0.00788726 0.00768695 0.00738621 0.00727541 0.00707611 0.00682037 0.00658768 0.0063473 0.00632844 0.0062025 0.00601821 0.00594597 0.00594527 0.0058073 0.00568262 0.00552996 0.00564052 0.00572226 0.00560005 0.00553467 0.00544091 0.00538027 0.00530164 0.0052295 0.00513354 0.00503431 0.00510942 0.00498385 0.00476234 0.00455103 0.00445379 0.00432438 0.00425905 0.00407825 0.00388635 0.00374419 0.00355828 0.00342359 0.00338331 0.00335162 0.00324033 0.00313016 0.00306031 0.00293854 0.0027447 0.00259994 0.00252469 0.00245714 0.00233098 0.00217451 0.00200854 0.00190803 0.0018301 0.00169887 0.00159038 0.00150398 0.00146287 0.0013767 0.00123641 0.00115202 0.00111285 0.0010441 0.000998732 0.000969652 0.000915511 0.000906486 0.000830534
255.515 0.00025 1.66793 0.272064 0.0897988 0.0532614 0.0411956 0.0343379 0.0296289 0.0251529 0.0222768 0.0203505 0.0186796 0.017299 0.0162872 0.0155372 0.0147892 0.0138328 0.0133312 0.0129485 0.0124205 0.0120208 0.0113547 0.011002 0.0106293 0.00999835 0.00933993 0.00911997 0.0090855 0.00903375 0.00892321 0.00868456 0.00840017 0.0082221 0.00802688 0.00789249 0.00768594 0.00738993 0.0072788 0.00707308 0.00681804 0.00657613 0.00633459 0.00631771 0.00619723 0.00601491 0.0059426 0.00593557 0.00580011 0.00568165 0.00553374 0.0056387 0.00572999 0.00560007 0.00552988 0.00544352 0.00539132 0.00531331 0.00524093 0.00513808 0.0050407 0.00511455 0.00499109 0.00477412 0.00455541 0.00444624 0.0043176 0.0042628 0.00408323 0.00388867 0.00374456 0.00355645 0.00342475 0.00338283 0.00334461 0.00323512 0.00312113 0.00305167 0.00293617 0.00274638 0.00260004 0.00252324 0.00245574 0.00233013 0.00217789 0.00201179 0.00191033 0.00183223 0.00170003 0.00159043 0.00150375 0.00146217 0.00137715 0.00123951 0.00115312 0.0011132 0.00104578 0.000999549 0.000971444 0.000916611 0.000907909 0.000831919
255.5175 0.00025 1.66817 0.27245 0.0898317 0.0532955 0.041232 0.0343191 0.0296742 0.0251934 0.0222659 0.020361 0.0186848 0.0173017 0.0162659 0.0155105 0.0147949 0.0138536 0.0133299 0.0129562 0.0124394 0.0120204 0.0113492 0.0109972 0.0106409 0.010021 0.00936207 0.00913081 0.00908781 0.00904102 0.00892913 0.00866922 0.00839369 0.00823112 0.00802989 0.0079003 0.00768639 0.00738914 0.00728259 0.00707264 0.00681436 0.00656542 0.00632078 0.00630903 0.00619507 0.0060156 0.00593998 0.00592823 0.00579352 0.00568057 0.00553708 0.00563877 0.00573593 0.00560205 0.00552413 0.00544565 0.00539844 0.00532599 0.0052524 0.005143 0.00505072 0.00511873 0.00499812 0.00478766 0.00456051 0.00443963 0.00431138 0.0042652 0.00408935 0.00389248 0.00374531 0.00355441 0.00342615 0.00338253 0.00333638 0.00322993 0.0031131 0.00304279 0.00293439 0.00274715 0.00260052 0.00252176 0.00245417 0.00232992 0.00218184 0.00201456 0.00191256 0.00183385 0.00170154 0.00158995 0.00150345 0.0014615 0.00137744 0.00124331 0.0011544 0.00111367 0.00104715 0.00100043 0.000973105 0.000917877 0.000909231 0.000833376
255.52 0.00025 1.66843 0.272516 0.0899321 0.0533555 0.0412563 0.034315 0.0297179 0.0252273 0.0222606 0.0203756 0.0186919 0.0173075 0.0162596 0.0154912 0.0148026 0.0138744 0.0133273 0.0129632 0.0124527 0.0120163 0.0113404 0.0109893 0.010648 0.0100412 0.00938993 0.00914539 0.00909151 0.00904969 0.00893384 0.00865323 0.00838782 0.00823902 0.00803125 0.00790629 0.00768665 0.0073893 0.00728691 0.00707441 0.00681027 0.00655463 0.00630854 0.00630106 0.00619183 0.00601147 0.00593859 0.00592066 0.00578928 0.00567856 0.00554202 0.00563748 0.0057419 0.00560577 0.00551908 0.00544689 0.00540525 0.00533659 0.00526453 0.00514918 0.005058 0.00512386 0.00500383 0.00479724 0.00456771 0.00443325 0.00430521 0.00426718 0.00409549 0.00389738 0.00374732 0.0035532 0.00342901 0.00338127 0.0033276 0.00322382 0.00310558 0.00303469 0.00293205 0.002748 0.0026006 0.0025212 0.0024527 0.0023296 0.00218526 0.00201815 0.00191481 0.0018362 0.00170303 0.00159013 0.00150339 0.00146146 0.00137797 0.00124625 0.00115546 0.00111359 0.00104847 0.0010012 0.000974598 0.000919168 0.00091075 0.00083501
255.5225 0.00025 1.66867 0.272506 0.0898971 0.0534247 0.0412799 0.0342641 0.0297494 0.0252692 0.0222638 0.0203778 0.0186978 0.0173146 0.0162536 0.0154733 0.0148061 0.0138912 0.0133287 0.0129714 0.0124685 0.0120084 0.0113389 0.0109805 0.0106556 0.0100626 0.00941188 0.00915875 0.0090989 0.00905992 0.00893458 0.00863536 0.00838113 0.00824829 0.00803633 0.00791697 0.00768511 0.00738729 0.00729091 0.00707405 0.00680452 0.00654863 0.00630027 0.00629342 0.0061871 0.00600804 0.00593791 0.00591103 0.00578245 0.0056759 0.00554531 0.0056363 0.00574483 0.0056105 0.00551584 0.0054491 0.00541049 0.00534677 0.00527703 0.00515645 0.0050658 0.00512672 0.00500853 0.00481097 0.00457501 0.00442844 0.00429841 0.00426842 0.00410081 0.0039023 0.00374964 0.00355256 0.0034302 0.00338103 0.00331965 0.00321845 0.00309872 0.00302666 0.00292925 0.00274897 0.00260067 0.0025205 0.00245166 0.00232989 0.00218898 0.00202113 0.00191702 0.00183775 0.00170399 0.00158991 0.00150309 0.00146062 0.00137869 0.00124938 0.00115682 0.00111375 0.00105006 0.00100189 0.0009764 0.000920398 0.000911921 0.00083659
255.525 0.00025 1.6689 0.272552 0.0898408 0.0534548 0.0413292 0.0342633 0.0297732 0.0253185 0.0222781 0.0203923 0.0187102 0.0173183 0.0162524 0.0154591 0.0148154 0.0139017 0.013328 0.0129757 0.0124776 0.0120077 0.0113421 0.0109756 0.010657 0.0100846 0.00943433 0.00917265 0.00910643 0.00907096 0.00893161 0.008616 0.00837809 0.00825652 0.00804354 0.00792562 0.00768126 0.00738367 0.00729347 0.00707613 0.00680191 0.00654192 0.00629161 0.00628497 0.00618217 0.00600761 0.00593514 0.0059026 0.00577732 0.00567302 0.00554749 0.00563661 0.00574649 0.00561479 0.00551306 0.00545122 0.00541559 0.00535665 0.00528961 0.00516577 0.00507769 0.00512824 0.00501366 0.004825 0.00458242 0.00442402 0.00429282 0.0042697 0.00410738 0.00390848 0.00375409 0.00355169 0.00343115 0.00337999 0.00331023 0.00321186 0.00309217 0.00301811 0.00292607 0.00274936 0.00260102 0.00251992 0.00245006 0.00232896 0.0021914 0.00202455 0.00191937 0.0018399 0.0017056 0.00158987 0.00150277 0.00146044 0.0013788 0.00125192 0.00115861 0.00111386 0.00105151 0.00100294 0.000977868 0.000921785 0.000913251 0.00083833
255.5275 0.00025 1.66912 0.272451 0.0898339 0.0534833 0.0413754 0.0342372 0.0297809 0.0253789 0.0223051 0.0203994 0.0187268 0.0173425 0.0162541 0.0154585 0.0148176 0.0139097 0.0133326 0.0129761 0.0124862 0.0120045 0.0113495 0.010963 0.0106585 0.0101041 0.00945521 0.00918983 0.00911732 0.00908668 0.00892982 0.00859688 0.00837621 0.00826437 0.00805181 0.00793627 0.00767768 0.00737875 0.00729693 0.00707725 0.00679691 0.00653435 0.00628354 0.00627901 0.00617683 0.00600272 0.00593183 0.00589495 0.00577224 0.00566849 0.00555221 0.00563601 0.00574675 0.00561838 0.00551108 0.00545551 0.00541861 0.00536394 0.0053014 0.0051753 0.00508908 0.00512964 0.00502051 0.00483595 0.00458967 0.00441937 0.00428866 0.00426746 0.00411099 0.00391419 0.00375727 0.0035512 0.00343293 0.00337885 0.00330151 0.00320661 0.00308553 0.00301179 0.00292336 0.00274961 0.00260084 0.00251956 0.00244902 0.00232768 0.00219427 0.00202747 0.0019217 0.00184121 0.00170731 0.00159023 0.00150229 0.00146005 0.00137841 0.00125478 0.00116019 0.00111387 0.00105277 0.00100384 0.000979526 0.000923402 0.000914403 0.000840021
255.53 0.00025 1.66932 0.272742 0.0900051 0.0535156 0.0414241 0.0342353 0.0297948 0.0254243 0.0223315 0.0204021 0.0187358 0.0173476 0.0162613 0.015463 0.0148158 0.0139232 0.0133352 0.0129782 0.0124896 0.0120041 0.0113573 0.0109536 0.0106582 0.0101243 0.00947863 0.00920478 0.00912581 0.00909966 0.00892516 0.00857692 0.00837491 0.00827351 0.00806284 0.00794505 0.00767327 0.00737399 0.00729745 0.00708288 0.00679664 0.00652772 0.00627525 0.00627239 0.00617251 0.0059977 0.005933 0.00588577 0.00576855 0.00566505 0.00555288 0.00563633 0.00574653 0.00562329 0.00550946 0.00545856 0.0054222 0.00537092 0.00531309 0.00518616 0.00510129 0.00513115 0.00502541 0.00484719 0.00459786 0.00441505 0.00428343 0.00426628 0.00411475 0.00391977 0.00376099 0.00355057 0.00343378 0.0033789 0.00329248 0.00320069 0.003079 0.00300417 0.00292005 0.0027498 0.00260033 0.00251974 0.00244769 0.00232659 0.00219656 0.002031 0.00192437 0.00184341 0.0017091 0.0015904 0.00150169 0.00145948 0.00137825 0.0012578 0.0011621 0.00111381 0.001054 0.00100471 0.000981251 0.000925032 0.00091545 0.000841803
255.5325 0.00025 1.66949 0.272848 0.0900348 0.0535437 0.0414818 0.0342355 0.0297934 0.025474 0.0223731 0.0204086 0.0187481 0.0173613 0.0162783 0.0154616 0.0148142 0.0139303 0.0133387 0.0129815 0.0124875 0.0120028 0.0113661 0.0109463 0.0106533 0.0101396 0.00950014 0.00922313 0.00913738 0.00911744 0.00891908 0.0085579 0.00837557 0.0082837 0.0080735 0.00795412 0.00766728 0.00736943 0.00729762 0.00708589 0.00679449 0.00652475 0.00626818 0.00626533 0.00616576 0.00599254 0.00593136 0.00587701 0.00576297 0.00566077 0.0055537 0.00563703 0.00574382 0.0056286 0.0055114 0.00546132 0.00542606 0.00537728 0.00532571 0.00519726 0.0051122 0.00513212 0.00502811 0.00485714 0.00460608 0.00441189 0.00427834 0.00426361 0.0041182 0.00392776 0.00376529 0.00355081 0.00343542 0.00337732 0.00328267 0.00319367 0.00307311 0.00299746 0.00291729 0.00274901 0.00259961 0.00251926 0.00244668 0.0023255 0.00219908 0.00203409 0.00192646 0.00184544 0.00171052 0.00159136 0.00150129 0.00145853 0.00137843 0.00126037 0.00116376 0.00111377 0.00105488 0.00100589 0.00098294 0.000926631 0.000916586 0.000843546
255.535 0.00025 1.66965 0.273271 0.0900033 0.0535714 0.0415475 0.0342398 0.0297835 0.0255224 0.0224321 0.0204225 0.0187599 0.0173685 0.0162922 0.0154698 0.0148116 0.0139366 0.0133375 0.0129796 0.0124865 0.0119989 0.0113808 0.0109421 0.0106465 0.0101507 0.0095259 0.00924348 0.00914999 0.0091298 0.00891498 0.00854304 0.00837716 0.00829288 0.00808552 0.00796223 0.00766131 0.00736728 0.00730076 0.00709163 0.00679291 0.00651981 0.00626324 0.00625848 0.0061583 0.00598983 0.00592866 0.0058687 0.00575937 0.00565732 0.00555416 0.00563711 0.00573962 0.0056334 0.00551465 0.00546536 0.00542898 0.00538333 0.00533636 0.00520875 0.00512524 0.00513306 0.00503142 0.00486752 0.00461479 0.00441068 0.00427517 0.00425891 0.00411922 0.00393529 0.00376893 0.00355097 0.00343738 0.0033757 0.00327314 0.00318705 0.00306842 0.00299055 0.00291439 0.0027489 0.00259924 0.0025204 0.00244485 0.00232499 0.00220145 0.00203725 0.0019289 0.00184735 0.00171234 0.00159149 0.00150104 0.00145777 0.00137832 0.00126285 0.00116564 0.00111373 0.00105597 0.00100697 0.000984489 0.000927992 0.00091766 0.000845231
255.5375 0.00025 1.66977 0.273174 0.0900288 0.0536181 0.0416136 0.0342553 0.0297781 0.0255734 0.0224859 0.0204331 0.0187667 0.0173651 0.0163037 0.0154788 0.0148092 0.0139476 0.0133416 0.0129793 0.0124851 0.0119939 0.0113968 0.010943 0.010641 0.0101589 0.00954758 0.00926702 0.00916539 0.00914547 0.00890963 0.00853025 0.00837663 0.00830257 0.00809788 0.00797015 0.00765667 0.00736638 0.00730251 0.00709403 0.00679228 0.00651764 0.00625994 0.00625277 0.00614863 0.00598496 0.00592852 0.00585958 0.00575432 0.00565229 0.00555479 0.00563712 0.00573479 0.00564009 0.00551595 0.00546923 0.00543274 0.00538747 0.00534712 0.00522139 0.00513793 0.00513398 0.00503219 0.00487756 0.00462366 0.00440751 0.00427154 0.00425459 0.00411929 0.00394345 0.00377525 0.00355123 0.00343922 0.00337422 0.00326406 0.00317994 0.00306358 0.00298478 0.00291197 0.00274748 0.00259855 0.00252092 0.00244383 0.00232419 0.00220373 0.00204056 0.00193135 0.00184894 0.00171358 0.00159244 0.00150044 0.00145738 0.00137784 0.00126529 0.00116788 0.00111399 0.00105665 0.00100781 0.000986474 0.000929736 0.000918652 0.000846936
255.54 0.00025 1.66986 0.273154 0.0899868 0.0536163 0.0416907 0.0342792 0.0297745 0.0256024 0.0225459 0.0204519 0.018775 0.0173628 0.016324 0.0155008 0.0148084 0.0139475 0.013341 0.0129767 0.0124822 0.0119822 0.0114055 0.0109468 0.0106336 0.0101645 0.00957339 0.00928652 0.00917831 0.00915561 0.0089035 0.00851588 0.00837802 0.00831391 0.0081113 0.00797486 0.0076522 0.00736591 0.00730359 0.00709674 0.00679254 0.00651607 0.00625567 0.00624601 0.00613923 0.00597783 0.00592912 0.00585227 0.00575124 0.0056493 0.00555646 0.00563534 0.00572858 0.00564659 0.00551933 0.00547393 0.00543689 0.00539208 0.00535754 0.00523449 0.00514881 0.00513661 0.0050339 0.0048869 0.00463314 0.00440646 0.00426798 0.00425009 0.0041185 0.00395111 0.00378042 0.00355229 0.00344238 0.00337257 0.00325461 0.00317296 0.00306 0.00297897 0.00290871 0.00274758 0.00259703 0.00252189 0.00244215 0.00232233 0.00220621 0.00204333 0.0019337 0.00185058 0.00171543 0.00159326 0.00150012 0.00145651 0.00137749 0.00126731 0.00116968 0.00111416 0.00105743 0.00100896 0.000987939 0.000931133 0.00091952 0.000848601
255.5425 0.00025 1.66994 0.273246 0.0899767 0.0536383 0.0417573 0.0343193 0.0297528 0.0256428 0.022616 0.0204887 0.0187859 0.0173602 0.0163363 0.0155154 0.0148091 0.0139471 0.0133435 0.0129756 0.0124787 0.0119743 0.0114182 0.0109543 0.0106235 0.0101697 0.00959588 0.00930843 0.00919055 0.00916309 0.0088982 0.00850536 0.00838042 0.00832471 0.00812317 0.00797884 0.00764657 0.007368 0.00730392 0.0070958 0.00679423 0.00651587 0.00625645 0.00623851 0.00612817 0.00597183 0.00592896 0.00584371 0.00574651 0.00564621 0.00555861 0.00563332 0.00572108 0.00565097 0.00552474 0.00547717 0.00544193 0.0053949 0.00536655 0.0052494 0.00516279 0.00513942 0.0050334 0.00489301 0.00464368 0.00440673 0.00426484 0.00424623 0.00411547 0.00395872 0.00378602 0.00355501 0.00344481 0.0033714 0.00324392 0.0031645 0.00305605 0.00297544 0.00290517 0.00274609 0.00259626 0.00252238 0.00244086 0.00232266 0.00220847 0.00204677 0.00193661 0.00185184 0.00171717 0.00159475 0.00149977 0.00145553 0.00137736 0.00126949 0.00117183 0.00111433 0.00105822 0.00100999 0.000989471 0.000932895 0.000920808 0.000850307
255.545 0.00025 1.66999 0.273655 0.0899844 0.0536242 0.0417992 0.0343693 0.0297378 0.0256708 0.0226765 0.0205139 0.0187898 0.0173543 0.0163502 0.015536 0.0148155 0.0139473 0.013347 0.012973 0.0124764 0.0119647 0.0114292 0.0109619 0.0106143 0.0101727 0.00962412 0.00932631 0.00920769 0.00916988 0.00889406 0.00850082 0.00838429 0.00833405 0.00813878 0.00797969 0.00764152 0.00736825 0.00730299 0.00709268 0.00679467 0.00651654 0.00625459 0.00623254 0.00611764 0.00596648 0.00593004 0.00583623 0.00574181 0.00564282 0.00556048 0.00563149 0.00571275 0.00565577 0.00552899 0.00548166 0.00544675 0.00539909 0.00537643 0.00526168 0.00517666 0.00514469 0.00503365 0.00490007 0.00465323 0.00440557 0.00426258 0.00424316 0.00411114 0.00396606 0.00379386 0.00355648 0.00344767 0.00337019 0.00323572 0.00315627 0.00305128 0.00297047 0.00290245 0.00274555 0.0025952 0.00252356 0.00243916 0.00232176 0.00221037 0.0020505 0.00193908 0.0018533 0.00171849 0.00159606 0.00149971 0.00145461 0.00137716 0.00127142 0.00117382 0.00111448 0.00105903 0.00101162 0.000990898 0.000934518 0.000921813 0.000852137
255.5475 0.00025 1.67004 0.273588 0.0899524 0.05364 0.0418776 0.0344151 0.029739 0.0257006 0.0227443 0.0205555 0.0188032 0.0173426 0.016368 0.0155577 0.0148225 0.013948 0.0133485 0.0129709 0.0124794 0.0119537 0.0114399 0.0109722 0.0106064 0.0101732 0.00964947 0.00934687 0.00921863 0.00917264 0.00889046 0.00850117 0.00838777 0.00834045 0.00815289 0.00798119 0.00763526 0.0073729 0.00730681 0.00709014 0.00679477 0.00651524 0.00625365 0.00622697 0.00610712 0.00596098 0.00593088 0.00582949 0.00573703 0.00563932 0.00556274 0.00562899 0.00570335 0.0056606 0.00553378 0.00548502 0.00545213 0.00540291 0.00538507 0.00527403 0.00518975 0.00514976 0.00503324 0.00490795 0.00466202 0.00440566 0.00426042 0.00423895 0.00410504 0.00397019 0.00380012 0.00355962 0.00345084 0.00336927 0.00322576 0.00314705 0.00304719 0.00296564 0.00289956 0.00274395 0.00259325 0.00252305 0.00243804 0.00232054 0.00221236 0.00205342 0.00194217 0.0018545 0.00172042 0.00159785 0.00149983 0.00145379 0.00137761 0.00127326 0.00117581 0.00111459 0.00105936 0.00101338 0.000992589 0.000936436 0.00092275 0.000853862
255.55 0.00025 1.67006 0.273705 0.0898564 0.053675 0.0419687 0.0344561 0.0297459 0.0257226 0.0228271 0.0205955 0.0188138 0.0173353 0.0163752 0.0155829 0.0148274 0.013945 0.0133481 0.0129689 0.0124794 0.0119353 0.0114482 0.0109836 0.0105968 0.010178 0.00967725 0.00936724 0.00923223 0.00917489 0.00888734 0.00850633 0.00839432 0.00834884 0.00817086 0.00797901 0.00763203 0.00737892 0.00730603 0.00708737 0.00679913 0.00651542 0.0062545 0.00622062 0.00609261 0.00595372 0.00593217 0.00582156 0.00573177 0.00563607 0.00556618 0.00562515 0.00569476 0.00566523 0.0055402 0.00548877 0.00545733 0.00540589 0.00539406 0.00528578 0.00520477 0.00515498 0.00503001 0.00491371 0.00467076 0.00440593 0.00425963 0.00423614 0.0041004 0.00397533 0.00380576 0.00356209 0.00345426 0.00336844 0.00321752 0.00313803 0.00304259 0.00296269 0.00289704 0.00274316 0.00259093 0.0025237 0.0024362 0.00232031 0.00221412 0.00205629 0.00194557 0.00185576 0.00172162 0.00159944 0.00149975 0.00145278 0.00137707 0.00127538 0.00117783 0.00111486 0.00105966 0.00101437 0.000994247 0.000938063 0.000923782 0.00085556
255.5525 0.00025 1.67007 0.273724 0.0898825 0.0536807 0.0420269 0.0345455 0.029747 0.0257475 0.0228927 0.0206458 0.0188287 0.0173231 0.0163833 0.0155966 0.0148363 0.0139441 0.0133464 0.0129658 0.012479 0.011915 0.0114549 0.0109948 0.0105865 0.0101806 0.00970255 0.00938609 0.00924485 0.00917587 0.00888322 0.00851476 0.00839839 0.00835325 0.00818706 0.00797767 0.00762629 0.0073885 0.00730626 0.00708366 0.00680028 0.00651873 0.00625549 0.00621546 0.00607843 0.00594872 0.00593336 0.00581435 0.0057262 0.00563367 0.00556836 0.0056215 0.00568352 0.00566985 0.0055467 0.00549139 0.00546226 0.0054091 0.00540289 0.00529913 0.00521816 0.00516024 0.00502518 0.00491598 0.00468075 0.00440728 0.00425761 0.00423293 0.0040949 0.00397938 0.0038133 0.00356599 0.00345945 0.00336732 0.0032098 0.00312809 0.00303942 0.00295952 0.00289466 0.00274266 0.00258864 0.00252359 0.00243468 0.0023193 0.00221582 0.00205985 0.00194873 0.00185666 0.00172321 0.00160156 0.00149991 0.00145252 0.00137696 0.00127676 0.00117994 0.00111522 0.00106011 0.00101586 0.000995815 0.000939622 0.000924522 0.000857274
255.555 0.00025 1.67008 0.274037 0.0898702 0.0536926 0.0420999 0.0346275 0.0297704 0.0257521 0.0229492 0.0206965 0.0188442 0.0173094 0.0163798 0.0156146 0.0148522 0.0139433 0.0133423 0.0129623 0.0124803 0.0119005 0.0114595 0.0110069 0.010576 0.0101832 0.00972816 0.00940375 0.00925434 0.00917623 0.00887675 0.00852644 0.00841044 0.00835493 0.00820161 0.00797452 0.00762264 0.00739699 0.00730852 0.00707689 0.0067991 0.00651836 0.00625928 0.0062092 0.00606495 0.00594321 0.00593264 0.00580726 0.00572206 0.00563131 0.00557253 0.0056171 0.0056726 0.00567441 0.00555176 0.00549382 0.00546809 0.00541396 0.00541066 0.00531037 0.00523115 0.00516731 0.00502179 0.0049188 0.0046887 0.00440938 0.00425591 0.00423059 0.0040888 0.00398009 0.00382041 0.00357169 0.0034635 0.00336751 0.00320276 0.00311916 0.0030365 0.0029571 0.00289227 0.00274162 0.00258661 0.00252353 0.00243361 0.00231818 0.00221722 0.00206296 0.00195224 0.00185828 0.00172496 0.0016033 0.00149995 0.00145122 0.00137645 0.00127825 0.00118199 0.00111573 0.0010606 0.00101667 0.000997568 0.000941592 0.000925521 0.000859094
255.5575 0.00025 1.6701 0.274263 0.0897857 0.0537108 0.0421475 0.0346971 0.0297956 0.0257665 0.0230138 0.0207508 0.0188622 0.0172932 0.0163784 0.0156241 0.0148679 0.0139418 0.0133449 0.0129631 0.012477 0.0118823 0.011457 0.011021 0.0105727 0.0101868 0.0097547 0.00942132 0.00926277 0.00917797 0.0088757 0.00854252 0.00842215 0.008358 0.0082187 0.00796801 0.00761758 0.00740846 0.00730832 0.00706654 0.00680027 0.00651786 0.00626461 0.00620309 0.0060498 0.00593754 0.00593355 0.00580199 0.00571893 0.00562907 0.00557482 0.00561412 0.00566135 0.00567892 0.00555813 0.00549605 0.00547362 0.00541947 0.00541944 0.00532277 0.00524658 0.00517451 0.00501603 0.0049204 0.00469873 0.00441182 0.00425428 0.0042268 0.00408241 0.00398106 0.00382564 0.00357562 0.00346859 0.00336665 0.0031954 0.00310938 0.00303233 0.00295633 0.00288977 0.0027409 0.00258436 0.0025232 0.00243189 0.00231767 0.00221889 0.00206616 0.00195577 0.0018591 0.00172645 0.00160536 0.00150105 0.00145003 0.00137592 0.00127958 0.00118397 0.00111631 0.0010607 0.00101759 0.000999237 0.000943421 0.000926391 0.000860792
255.56 0.00025 1.67011 0.274133 0.0897215 0.0537237 0.0422359 0.0347673 0.0298249 0.0257881 0.0230715 0.0208083 0.0188872 0.017277 0.0163711 0.0156327 0.0148887 0.0139447 0.0133414 0.0129641 0.0124703 0.0118635 0.0114556 0.011033 0.0105728 0.0101953 0.00977646 0.00943485 0.0092681 0.00917555 0.00887666 0.00856336 0.00843439 0.00835866 0.00823203 0.00796335 0.00761278 0.00741839 0.00730765 0.00705956 0.00680074 0.00651867 0.00626903 0.00619722 0.00603513 0.0059318 0.00593105 0.00579916 0.00571623 0.00562829 0.00558111 0.00560951 0.00565104 0.00568252 0.00556484 0.00549743 0.005478 0.00542531 0.00542904 0.00533411 0.00526074 0.00518056 0.00501244 0.0049219 0.0047049 0.00441446 0.00425517 0.00422256 0.00407683 0.00398071 0.0038294 0.00358144 0.00347313 0.00336557 0.00318803 0.00309885 0.00302837 0.00295441 0.00288707 0.00274031 0.00258226 0.00252257 0.0024304 0.0023168 0.00222035 0.00206959 0.00195974 0.00186016 0.00172756 0.00160749 0.00150144 0.00144892 0.00137543 0.00128122 0.00118618 0.00111659 0.0010609 0.00101862 0.00100097 0.00094558 0.00092715 0.000862433
255.5625 0.00025 1.67012 0.274103 0.0896127 0.0537574 0.0422804 0.0348539 0.0298658 0.0257991 0.0231264 0.0208593 0.018928 0.0172679 0.0163535 0.015638 0.0149057 0.0139485 0.0133355 0.0129652 0.0124597 0.0118398 0.0114501 0.0110442 0.0105692 0.0102002 0.00979583 0.00944949 0.00927414 0.00917215 0.00887566 0.00858404 0.00844981 0.00836023 0.00824455 0.00795962 0.00760617 0.00743111 0.0073062 0.00704839 0.00679807 0.0065187 0.00627376 0.00619096 0.00602028 0.00592548 0.00592985 0.00579422 0.0057135 0.00562518 0.00558262 0.00560574 0.00563969 0.00568574 0.00557134 0.00549893 0.00548203 0.00543383 0.00543858 0.00534598 0.00527371 0.00518824 0.00500893 0.00492146 0.00471122 0.00441831 0.00425544 0.00421865 0.00407128 0.00397986 0.00383246 0.00358748 0.00347889 0.00336582 0.0031826 0.00308754 0.00302363 0.00295191 0.00288602 0.00273924 0.00257996 0.00252172 0.00242875 0.00231573 0.00222118 0.00207246 0.00196352 0.00186145 0.00172883 0.00160974 0.00150239 0.00144797 0.00137535 0.00128277 0.00118821 0.00111717 0.0010612 0.00101917 0.00100257 0.00094752 0.000928169 0.000864202
255.565 0.00025 1.67013 0.27416 0.0896078 0.0537927 0.0423537 0.0349393 0.0299262 0.0258262 0.023179 0.0209192 0.0189586 0.0172705 0.0163399 0.0156393 0.0149304 0.0139531 0.0133325 0.0129652 0.0124503 0.0118218 0.0114449 0.0110512 0.0105721 0.0102108 0.00981151 0.00946371 0.00927856 0.00916919 0.00887832 0.00860654 0.00846303 0.00836122 0.00825645 0.0079553 0.00760191 0.00744547 0.00730737 0.00703704 0.00679515 0.00652058 0.00627829 0.00618442 0.0060064 0.00591838 0.00592708 0.00579036 0.00571015 0.00562335 0.00558442 0.0055979 0.00562856 0.00568843 0.00558078 0.00549991 0.00548702 0.00544154 0.0054489 0.0053579 0.00528694 0.0051953 0.00500582 0.00491957 0.00471808 0.00442187 0.00425676 0.00421426 0.00406638 0.00397832 0.00383593 0.00359498 0.00348418 0.00336502 0.00317704 0.00307681 0.00301804 0.00295087 0.00288384 0.00273921 0.00257757 0.00252053 0.00242777 0.00231493 0.00222195 0.00207569 0.00196743 0.00186205 0.00173023 0.00161223 0.0015033 0.00144694 0.00137498 0.00128378 0.00119027 0.00111783 0.00106136 0.00101991 0.00100451 0.000949839 0.000929133 0.000865771
255.5675 0.00025 1.67016 0.274217 0.0896576 0.0538251 0.0424309 0.0350268 0.0299876 0.0258607 0.0232229 0.0209751 0.0189894 0.0172522 0.0163169 0.0156334 0.0149541 0.0139618 0.0133331 0.0129673 0.0124434 0.0118047 0.0114333 0.0110613 0.0105778 0.0102218 0.00982547 0.00947465 0.00928557 0.00916722 0.00888469 0.00863195 0.00847858 0.00835988 0.00826651 0.00795319 0.00759633 0.00745773 0.00730704 0.00702864 0.00678997 0.00652296 0.00628439 0.00617779 0.00599614 0.0059122 0.00592516 0.00578885 0.00570723 0.00562233 0.00558571 0.00559397 0.00561747 0.005691 0.00558845 0.00550097 0.00549074 0.00545036 0.00546046 0.00536896 0.00529955 0.00520147 0.00500309 0.00491628 0.00472407 0.00442746 0.0042597 0.00421004 0.00406282 0.003977 0.00383701 0.00360227 0.00349082 0.00336524 0.00317262 0.00306631 0.00301345 0.00294938 0.00288161 0.00273871 0.00257541 0.00251866 0.00242609 0.00231422 0.0022228 0.0020787 0.00197179 0.00186372 0.00173077 0.00161424 0.00150475 0.00144571 0.00137515 0.00128497 0.00119222 0.0011185 0.00106146 0.00102024 0.00100595 0.00095225 0.000930061 0.000867518