255.5025 0.00025 -0.0969366 0.0257416 0.138137 0.144219 0.081186 -0.00251557 -0.0966129 -0.154282 -0.210183 -0.245441 -0.279421 -0.287524 -0.36962 -0.379013 -0.430607 -0.364918 -0.276503 -0.312714 -0.372229 -0.414845 -0.33532 -0.113485 -0.040289 -0.0256641 0.0318893 0.15016 0.228078 0.03217 0.0233833 0.0729516 0.00807903 0.0130481 0.017569 -0.0487486 0.0122364 0.0769574 0.0682318 0.0266542 -0.00888966 -0.0427059 -0.00702131 0.0218714 0.0956676 0.245212 0.259113 0.142403 0.0614688 0.0887527 0.0763035 -0.0456706 -0.139565 -0.17448 -0.23004 -0.26711 -0.279065 -0.266597 -0.274741 -0.236914 -0.164014 -0.145506 -0.0377385 0.0386843 0.0714383 -0.0124777 -0.13456 -0.155412 -0.200117 -0.123731 0.0295079 0.0763926 0.03899 0.0433414 0.150924 0.113801 0.0124513 -0.0675858 -0.208911 -0.272184 -0.231458 -0.0146185 0.163588 0.246988 0.244442 0.177783 0.118008 0.196465 0.210402 0.152644 0.136889 0.13976 0.103015 0.0601017 0.0779532 0.177354 0.161806 0.143696 0.0836798 -0.000332666 0.0202707 0.190162
255.505 0.00025 -0.0734634 0.0309309 0.136508 0.142732 0.0761583 -0.0144601 -0.103767 -0.159397 -0.223601 -0.249065 -0.283774 -0.292313 -0.371016 -0.375208 -0.432889 -0.368546 -0.273903 -0.312153 -0.371634 -0.418384 -0.347313 -0.125361 -0.042205 -0.0185193 0.0397969 0.151899 0.236334 0.0436146 0.0313789 0.0789142 0.00705953 0.0159181 0.0257221 -0.0447969 0.0103553 0.0732306 0.070064 0.0361086 0.00385203 -0.0280906 0.00110294 0.0368361 0.106703 0.250329 0.26203 0.145514 0.0586793 0.0835883 0.0793554 -0.0457145 -0.137827 -0.173666 -0.230732 -0.269408 -0.277242 -0.263977 -0.278237 -0.238551 -0.170771 -0.147725 -0.0329147 0.0418295 0.0704313 -0.00806331 -0.122717 -0.138173 -0.185135 -0.126892 0.0217733 0.0712252 0.0357134 0.0348525 0.143697 0.113945 0.0145232 -0.0625792 -0.205577 -0.272411 -0.244599 -0.0289804 0.162373 0.241998 0.237257 0.173611 0.112219 0.190853 0.209751 0.150787 0.136433 0.141515 0.104918 0.0595636 0.076873 0.179292 0.163963 0.145062 0.0875902 0.001323 0.0184813 0.187072
255.5075 0.00025 -0.0605579 0.0370478 0.134703 0.141363 0.0729493 -0.0250696 -0.111019 -0.164203 -0.237137 -0.253301 -0.288695 -0.29699 -0.372399 -0.372401 -0.434206 -0.371846 -0.27165 -0.3114 -0.37242 -0.422336 -0.356318 -0.136352 -0.0439436 -0.0110872 0.0468942 0.150069 0.240259 0.0535159 0.0381624 0.0824162 0.00514661 0.0165495 0.0308763 -0.0420502 0.00620983 0.0657046 0.0686327 0.0406098 0.0129707 -0.0171238 0.00633906 0.0483265 0.113757 0.25228 0.262258 0.145723 0.0533845 0.074935 0.0790815 -0.0485433 -0.138877 -0.175541 -0.234075 -0.274431 -0.278198 -0.263514 -0.283722 -0.242303 -0.178842 -0.15094 -0.0293451 0.0448068 0.0704628 -0.00342211 -0.111514 -0.121024 -0.169348 -0.128478 0.0138662 0.0643515 0.0314194 0.0259931 0.135606 0.114459 0.0159417 -0.0578767 -0.201909 -0.272144 -0.257096 -0.0442842 0.16121 0.238489 0.231861 0.170559 0.106716 0.185028 0.208871 0.14866 0.136123 0.143254 0.107394 0.059795 0.0765018 0.181592 0.166407 0.146729 0.0917881 0.00343316 0.0172881 0.184669
255.51 0.00025 -0.0511573 0.0431173 0.132949 0.139956 0.0702262 -0.0357112 -0.119176 -0.169154 -0.250966 -0.259127 -0.294802 -0.301478 -0.37363 -0.370358 -0.434705 -0.374585 -0.270481 -0.31079 -0.374169 -0.426192 -0.362793 -0.146307 -0.0456325 -0.00364007 0.0531284 0.14617 0.241446 0.0633287 0.045389 0.0849691 0.00344686 0.0159151 0.034589 -0.0388782 0.00171796 0.0563938 0.0660402 0.0428052 0.0213135 -0.00707179 0.0115682 0.0587271 0.119092 0.252807 0.261319 0.144831 0.04793 0.0651821 0.0777256 -0.052004 -0.140865 -0.178149 -0.237969 -0.280099 -0.280333 -0.263552 -0.289767 -0.246648 -0.186705 -0.154516 -0.0267748 0.04759 0.0712541 0.00152008 -0.101628 -0.104406 -0.152888 -0.128792 0.00589838 0.0564184 0.0266622 0.0174285 0.12681 0.114956 0.0169025 -0.0534139 -0.197794 -0.271424 -0.268617 -0.0599629 0.159775 0.236072 0.227486 0.167939 0.101565 0.178913 0.207625 0.14603 0.135633 0.144694 0.109865 0.0603828 0.0765675 0.184092 0.16921 0.148852 0.0963131 0.00574713 0.0162769 0.182473
255.5125 0.00025 -0.0435024 0.0491565 0.131657 0.138463 0.0672498 -0.0468786 -0.128417 -0.174061 -0.265131 -0.267203 -0.302088 -0.305577 -0.374936 -0.369245 -0.43484 -0.376577 -0.270719 -0.310627 -0.376651 -0.429656 -0.367275 -0.155144 -0.0472686 0.00361179 0.0587014 0.140931 0.240549 0.0732442 0.0529566 0.0869839 0.00234402 0.0143067 0.0373304 -0.0348192 -0.0025774 0.0462725 0.063135 0.043811 0.0299475 0.0032595 0.0178346 0.0687023 0.123401 0.252454 0.259852 0.143666 0.0431806 0.0551662 0.0756214 -0.0554352 -0.143412 -0.180646 -0.241849 -0.285844 -0.283279 -0.263713 -0.295897 -0.251273 -0.194095 -0.158303 -0.0250664 0.0498075 0.0724904 0.00680211 -0.0926442 -0.0879776 -0.135396 -0.127627 -0.0019113 0.0475785 0.0215309 0.00930669 0.117575 0.115425 0.0176897 -0.0491406 -0.192911 -0.269985 -0.279031 -0.0758436 0.157665 0.234414 0.223716 0.165777 0.0970104 0.172571 0.206074 0.142862 0.134811 0.145559 0.112027 0.0610508 0.0768873 0.186606 0.172271 0.151387 0.10097 0.00796633 0.0151912 0.180164
255.515 0.00025 -0.0378373 0.0549318 0.130836 0.137055 0.0637054 -0.0583373 -0.138308 -0.178724 -0.279262 -0.277636 -0.310229 -0.309293 -0.376441 -0.369122 -0.43502 -0.377824 -0.272039 -0.311023 -0.379663 -0.432645 -0.370523 -0.162766 -0.0487887 0.0105459 0.0638521 0.134985 0.237807 0.0827841 0.0604546 0.0883877 0.00179181 0.0117612 0.0392603 -0.0298462 -0.00668285 0.0359271 0.0601658 0.0440821 0.0388602 0.0141186 0.0253388 0.0779768 0.12685 0.251365 0.257854 0.142342 0.0391322 0.0451549 0.0728591 -0.0584495 -0.146283 -0.182681 -0.245587 -0.291543 -0.287108 -0.26408 -0.30178 -0.256052 -0.20094 -0.162012 -0.0238372 0.0515447 0.0743465 0.0127551 -0.084185 -0.0715688 -0.116741 -0.124648 -0.00923836 0.0379751 0.0160078 0.00150155 0.107912 0.115802 0.0185843 -0.0452011 -0.18708 -0.267751 -0.288297 -0.0918919 0.154861 0.233288 0.220594 0.164163 0.0931761 0.166002 0.204237 0.139229 0.13363 0.145888 0.113847 0.0617306 0.0773598 0.188907 0.175257 0.153985 0.105482 0.00995345 0.0139041 0.177618
255.5175 0.00025 -0.0339402 0.0604397 0.130305 0.135792 0.0594933 -0.0696178 -0.148509 -0.183159 -0.292807 -0.290072 -0.318647 -0.312649 -0.378027 -0.369798 -0.435307 -0.378374 -0.274184 -0.3121 -0.382975 -0.435104 -0.373112 -0.169028 -0.0499835 0.0168541 0.0686187 0.128432 0.2333 0.0917683 0.0679595 0.0893952 0.00168606 0.00854657 0.0405115 -0.0239038 -0.0105217 0.0258362 0.0570378 0.0438475 0.0475844 0.0252012 0.0339339 0.0863157 0.129629 0.24957 0.255185 0.140828 0.035791 0.035557 0.0695943 -0.0608545 -0.149284 -0.184104 -0.249227 -0.296983 -0.29159 -0.264707 -0.307348 -0.26068 -0.207005 -0.165729 -0.0230989 0.0527573 0.0769368 0.0193447 -0.0765749 -0.0558075 -0.0973835 -0.120087 -0.0161188 0.0277814 0.0100639 -0.00602334 0.097876 0.115856 0.019789 -0.0415918 -0.180392 -0.264953 -0.29656 -0.10789 0.151326 0.232605 0.218132 0.162852 0.0899098 0.159186 0.202199 0.135496 0.132439 0.146098 0.115636 0.0626098 0.07802 0.190971 0.177944 0.156389 0.109778 0.0117697 0.0124385 0.174965
255.52 0.00025 -0.0317208 0.0651608 0.12987 0.134882 0.054439 -0.0805014 -0.158647 -0.187518 -0.305165 -0.303729 -0.327042 -0.315843 -0.379631 -0.371175 -0.435603 -0.378661 -0.277058 -0.314003 -0.386648 -0.437082 -0.375363 -0.174078 -0.050888 0.022152 0.0729078 0.121323 0.22717 0.100112 0.0755683 0.090223 0.00178239 0.00474598 0.0410277 -0.0170401 -0.0140532 0.0163903 0.0536208 0.0433304 0.0559695 0.036569 0.043526 0.093862 0.132206 0.247431 0.251979 0.139123 0.0331624 0.0268145 0.0657388 -0.062649 -0.152329 -0.184938 -0.25283 -0.302122 -0.296548 -0.265861 -0.312505 -0.264876 -0.211868 -0.169583 -0.0230086 0.0532518 0.0799347 0.0263431 -0.0699805 -0.0414425 -0.0778302 -0.114423 -0.0226663 0.0168335 0.00378134 -0.0131651 0.0876917 0.11548 0.0213053 -0.0384571 -0.173138 -0.261792 -0.303665 -0.12362 0.14691 0.232135 0.216051 0.161532 0.0869202 0.152286 0.200187 0.132072 0.131692 0.146773 0.11778 0.0638711 0.0788724 0.192816 0.180363 0.158683 0.114105 0.0136371 0.0109246 0.172244
255.5225 0.00025 -0.0312754 0.0692896 0.129564 0.133905 0.0486909 -0.0907285 -0.168398 -0.191866 -0.31568 -0.317687 -0.335276 -0.319073 -0.381529 -0.372992 -0.435691 -0.379225 -0.280407 -0.316649 -0.390839 -0.438596 -0.377205 -0.178068 -0.0513452 0.0262443 0.0767598 0.114024 0.219521 0.107826 0.0828921 0.09092 0.00204758 0.000405583 0.0405262 -0.00958641 -0.0174401 0.00778013 0.0498492 0.0428688 0.0641903 0.0481834 0.0537321 0.100919 0.135004 0.245066 0.24833 0.1373 0.0312873 0.0189002 0.0610782 -0.0638119 -0.155144 -0.185104 -0.256403 -0.306938 -0.301606 -0.267513 -0.317471 -0.268685 -0.215563 -0.173523 -0.0234648 0.0531352 0.083133 0.0335861 -0.0642417 -0.0284907 -0.0578589 -0.107388 -0.0286443 0.00522892 -0.00292704 -0.0200975 0.0774709 0.114436 0.0229001 -0.0359959 -0.165525 -0.258234 -0.309426 -0.138826 0.141455 0.231656 0.213996 0.159763 0.0840875 0.145693 0.198371 0.128892 0.131154 0.147711 0.11999 0.0652762 0.0797363 0.194295 0.182428 0.160902 0.118566 0.0156354 0.00940308 0.169339
255.525 0.00025 -0.0322599 0.0722709 0.128892 0.132382 0.0423427 -0.100278 -0.177385 -0.196264 -0.323824 -0.33106 -0.343108 -0.322306 -0.383963 -0.374977 -0.435326 -0.380258 -0.283915 -0.319963 -0.395706 -0.439795 -0.378695 -0.181465 -0.0512664 0.0291728 0.0801954 0.106769 0.210478 0.11483 0.089574 0.0915152 0.00238714 -0.004368 0.0388514 -0.00186534 -0.0206516 0.00012424 0.0457571 0.0427217 0.0717585 0.059585 0.0638521 0.10743 0.137966 0.242262 0.244145 0.135386 0.0301052 0.0116825 0.0556531 -0.0644637 -0.157624 -0.184569 -0.259704 -0.311383 -0.306174 -0.269532 -0.322401 -0.272475 -0.218483 -0.177427 -0.024073 0.0528247 0.0866668 0.0410172 -0.05875 -0.016675 -0.0371295 -0.0984593 -0.0335713 -0.0066892 -0.0100217 -0.0269134 0.0673219 0.112528 0.0244502 -0.0340681 -0.157678 -0.254153 -0.313794 -0.153457 0.135108 0.231108 0.212211 0.157887 0.0816715 0.139126 0.19637 0.125568 0.130252 0.14824 0.121575 0.0664085 0.0804719 0.19534 0.184082 0.162988 0.123129 0.0177541 0.00784466 0.166282
255.5275 0.00025 -0.0343284 0.0738956 0.128005 0.129828 0.0354035 -0.108898 -0.185074 -0.200863 -0.329625 -0.343269 -0.350411 -0.325335 -0.387253 -0.377003 -0.434381 -0.381649 -0.287404 -0.323966 -0.401507 -0.440635 -0.379763 -0.184752 -0.0506831 0.030952 0.0831584 0.0996279 0.20019 0.12115 0.0955541 0.0920836 0.0027378 -0.00931648 0.0360879 0.00568482 -0.0236233 -0.00657571 0.0412472 0.0427412 0.0782461 0.0705345 0.0733041 0.113134 0.140957 0.238788 0.23936 0.133394 0.0296033 0.00520778 0.0496723 -0.0647513 -0.159605 -0.183253 -0.262707 -0.315819 -0.310227 -0.272211 -0.327985 -0.276723 -0.220895 -0.181194 -0.0247484 0.052587 0.0906185 0.0485866 -0.0532053 -0.00616014 -0.0158435 -0.0878244 -0.0375358 -0.018826 -0.0173491 -0.0334657 0.0573862 0.109801 0.0259679 -0.03247 -0.149586 -0.249408 -0.316795 -0.16752 0.127802 0.230408 0.21116 0.156617 0.080009 0.132461 0.194031 0.122192 0.128948 0.14829 0.122706 0.0675246 0.0813664 0.19629 0.185628 0.165116 0.127812 0.020028 0.00633464 0.163291
255.53 0.00025 -0.037552 0.0741299 0.126733 0.125914 0.0279781 -0.116482 -0.191486 -0.205868 -0.333247 -0.353989 -0.357357 -0.32847 -0.391813 -0.378963 -0.432807 -0.383465 -0.291009 -0.328557 -0.408224 -0.441094 -0.380357 -0.188203 -0.0497092 0.0318336 0.0856737 0.0928111 0.188854 0.126742 0.100687 0.0925518 0.0031578 -0.0142278 0.0324457 0.012905 -0.0260339 -0.0121223 0.0364362 0.0432326 0.0838606 0.0814509 0.082076 0.118366 0.144157 0.234851 0.23405 0.131298 0.0297389 -0.000402208 0.0433411 -0.0646765 -0.160867 -0.181268 -0.265305 -0.320564 -0.314071 -0.275861 -0.334406 -0.281078 -0.222336 -0.184538 -0.0256766 0.0521941 0.0948694 0.0562369 -0.0472818 0.00298497 0.00555107 -0.0757436 -0.0406142 -0.0309847 -0.0248103 -0.0398666 0.0478127 0.106313 0.027442 -0.0310761 -0.141428 -0.244046 -0.318635 -0.181052 0.119443 0.229385 0.210716 0.155783 0.0790608 0.126198 0.191421 0.118865 0.127271 0.147967 0.123562 0.068833 0.082504 0.197308 0.187167 0.167364 0.13262 0.0224491 0.00491561 0.160406
255.5325 0.00025 -0.0416065 0.0730008 0.125022 0.120435 0.020231 -0.12313 -0.196733 -0.211343 -0.334821 -0.362923 -0.363802 -0.331652 -0.397696 -0.380779 -0.430837 -0.385761 -0.294809 -0.333486 -0.415604 -0.441262 -0.38058 -0.191856 -0.0485548 0.032065 0.087654 0.0864605 0.17681 0.131674 0.104951 0.0930137 0.00385857 -0.018934 0.0282304 0.0197521 -0.0274621 -0.0162823 0.0317359 0.0445392 0.0888801 0.0922678 0.0900733 0.123528 0.147764 0.230634 0.228244 0.128865 0.0302691 -0.00517304 0.0367696 -0.0644554 -0.161387 -0.178783 -0.267414 -0.325674 -0.317519 -0.280151 -0.34119 -0.285303 -0.222864 -0.187292 -0.0271122 0.0514255 0.0991834 0.06357 -0.0408691 0.0106793 0.026706 -0.0621 -0.0427469 -0.0430133 -0.0324633 -0.0461484 0.0387465 0.102159 0.0287813 -0.0297803 -0.133411 -0.238182 -0.319143 -0.193704 0.11027 0.227969 0.210454 0.154849 0.0784376 0.120367 0.188557 0.115824 0.125436 0.147447 0.124145 0.0701923 0.0836935 0.198285 0.188593 0.169701 0.137427 0.0248924 0.00353552 0.15755
255.535 0.00025 -0.0462669 0.0704841 0.122928 0.113648 0.0124741 -0.129014 -0.201035 -0.217153 -0.334758 -0.370051 -0.369589 -0.334999 -0.404743 -0.382528 -0.428565 -0.38833 -0.299087 -0.33853 -0.423407 -0.441148 -0.380642 -0.195954 -0.0475558 0.0319352 0.0889742 0.0807106 0.164386 0.135787 0.108196 0.0934631 0.00489462 -0.0234403 0.0234535 0.0260376 -0.0278618 -0.0190891 0.0273306 0.0465878 0.0935257 0.102778 0.0970059 0.128425 0.151642 0.22613 0.221874 0.125958 0.0309889 -0.00932488 0.0302231 -0.0642045 -0.161363 -0.176034 -0.269052 -0.33101 -0.320237 -0.284661 -0.348262 -0.289463 -0.222753 -0.189494 -0.0290015 0.0506965 0.103624 0.0705523 -0.0338562 0.0170797 0.0472654 -0.0467721 -0.0438032 -0.0546594 -0.0400706 -0.0520951 0.0303609 0.0975197 0.0300694 -0.0283169 -0.125484 -0.231826 -0.318101 -0.205061 0.100662 0.226196 0.210378 0.153693 0.0777009 0.114464 0.185383 0.113227 0.123629 0.146873 0.124286 0.071218 0.0846089 0.198927 0.18969 0.172079 0.142258 0.0273116 0.00218443 0.15466
255.5375 0.00025 -0.0515128 0.0666927 0.120257 0.105925 0.0047712 -0.134194 -0.204576 -0.223114 -0.333569 -0.375524 -0.374627 -0.338881 -0.412717 -0.384273 -0.426074 -0.390914 -0.304049 -0.343769 -0.431424 -0.440582 -0.380602 -0.200522 -0.0469055 0.0317858 0.08938 0.0756483 0.151822 0.138894 0.110305 0.0936315 0.00604086 -0.0279005 0.0179764 0.0315442 -0.0274195 -0.0206642 0.0233418 0.0491401 0.097957 0.112695 0.102784 0.132823 0.155694 0.221548 0.215152 0.122661 0.031957 -0.0128978 0.0238039 -0.0639438 -0.16082 -0.173129 -0.270232 -0.336618 -0.322377 -0.289191 -0.355519 -0.293677 -0.222212 -0.190867 -0.0313474 0.05013 0.108141 0.0771813 -0.0261235 0.0224732 0.0669589 -0.0298534 -0.0436569 -0.0655679 -0.0474178 -0.0576156 0.0227231 0.0925271 0.031289 -0.0263685 -0.117571 -0.224877 -0.315896 -0.215364 0.0906352 0.224037 0.210632 0.152602 0.0770305 0.108414 0.181749 0.110935 0.12163 0.145942 0.123599 0.0716484 0.0851056 0.19908 0.190226 0.174193 0.147151 0.0297865 0.000845098 0.151689
255.54 0.00025 -0.056866 0.0618481 0.116908 0.0974642 -0.00279903 -0.138738 -0.207424 -0.229106 -0.331883 -0.379531 -0.378733 -0.343529 -0.421182 -0.386298 -0.423337 -0.393181 -0.309763 -0.349161 -0.439392 -0.439607 -0.380471 -0.205529 -0.046767 0.0318393 0.088766 0.0712312 0.139209 0.140903 0.111136 0.093236 0.00720789 -0.0323457 0.0116744 0.0361174 -0.0263247 -0.021193 0.019929 0.0520043 0.102315 0.121657 0.107596 0.136823 0.159938 0.217019 0.208058 0.118872 0.0331698 -0.0159516 0.0174963 -0.0635824 -0.159682 -0.17009 -0.270872 -0.342289 -0.32432 -0.293558 -0.362673 -0.298064 -0.221413 -0.191359 -0.0340388 0.0497192 0.112714 0.0834308 -0.0177796 0.027254 0.085342 -0.0116759 -0.0424842 -0.0757283 -0.054673 -0.062784 0.0156323 0.0870728 0.0320537 -0.0241734 -0.109937 -0.217715 -0.312926 -0.224951 0.0800432 0.22115 0.21105 0.151686 0.0766318 0.102505 0.177462 0.108743 0.119279 0.144616 0.122346 0.0719268 0.0853494 0.198823 0.190219 0.175791 0.151966 0.0323763 -0.00051522 0.148659
255.5425 0.00025 -0.0622608 0.055931 0.112803 0.0886359 -0.0103243 -0.142735 -0.209452 -0.234843 -0.330336 -0.38222 -0.382 -0.34908 -0.429759 -0.388795 -0.420419 -0.394972 -0.31619 -0.354866 -0.446974 -0.438308 -0.379994 -0.211105 -0.0473336 0.0321341 0.087189 0.0673278 0.126952 0.142134 0.11111 0.0922526 0.00836701 -0.0367019 0.00455885 0.0396587 -0.0245444 -0.0207217 0.0173666 0.0551912 0.106717 0.129201 0.111651 0.140517 0.164633 0.212747 0.200631 0.114569 0.0345901 -0.0184569 0.0115792 -0.0631877 -0.158128 -0.167056 -0.270976 -0.347816 -0.326355 -0.297556 -0.369598 -0.302714 -0.220544 -0.190951 -0.0371722 0.0494708 0.117221 0.089224 -0.00897518 0.0316536 0.102064 0.00758648 -0.0404184 -0.0853241 -0.0620585 -0.0676897 0.00897526 0.081157 0.0320897 -0.0220858 -0.103076 -0.210376 -0.30902 -0.233661 0.068939 0.217402 0.211311 0.150557 0.0763229 0.0969632 0.172776 0.106755 0.116659 0.143012 0.12096 0.0724748 0.0856623 0.198437 0.189945 0.177055 0.156629 0.0350843 -0.00185473 0.145579
255.545 0.00025 -0.0674708 0.0492298 0.1079 0.079806 -0.017605 -0.146205 -0.210525 -0.239818 -0.329343 -0.383418 -0.384666 -0.355471 -0.438102 -0.391967 -0.417348 -0.39614 -0.323285 -0.361059 -0.453688 -0.436584 -0.379029 -0.217484 -0.0487978 0.0325221 0.0847276 0.0636907 0.115291 0.142778 0.110396 0.0904602 0.00944256 -0.0410927 -0.00337705 0.0422516 -0.0219613 -0.0192319 0.0156789 0.0584131 0.111359 0.135269 0.115155 0.143616 0.169612 0.208825 0.19291 0.109843 0.0362708 -0.0203352 0.00624311 -0.0628967 -0.156416 -0.164145 -0.270622 -0.353198 -0.328828 -0.301306 -0.376187 -0.307395 -0.219547 -0.189609 -0.0407531 0.0491897 0.12182 0.0946442 5.87758e-06 0.0358529 0.116948 0.0278826 -0.0375147 -0.0943173 -0.0695391 -0.072361 0.00275516 0.0750184 0.0313695 -0.0201394 -0.0968025 -0.202693 -0.303981 -0.241112 0.0575954 0.212785 0.211343 0.14934 0.0759773 0.0916074 0.167669 0.104916 0.113706 0.140973 0.11942 0.0733481 0.0862471 0.198174 0.189669 0.178248 0.161318 0.0379224 -0.00316282 0.142434
255.5475 0.00025 -0.0723205 0.0417835 0.102151 0.071238 -0.0242489 -0.149403 -0.210416 -0.243681 -0.329042 -0.383157 -0.387067 -0.362372 -0.445978 -0.396095 -0.414276 -0.396567 -0.330848 -0.367847 -0.459216 -0.434577 -0.377474 -0.224714 -0.0511724 0.0327292 0.0815877 0.0600792 0.104336 0.142608 0.108862 0.0877388 0.0104147 -0.0455761 -0.0118994 0.0439462 -0.0186189 -0.0166923 0.0150699 0.0617319 0.116454 0.139984 0.118419 0.145999 0.174932 0.205476 0.184987 0.104683 0.0382803 -0.0215572 0.00154088 -0.0626478 -0.154278 -0.161425 -0.269888 -0.358289 -0.331745 -0.30482 -0.382254 -0.312234 -0.218729 -0.187557 -0.0447943 0.0489147 0.126666 0.0998916 0.00920589 0.0404005 0.130124 0.0489195 -0.0337346 -0.102313 -0.0767452 -0.0764801 -0.00293846 0.0690341 0.0301725 -0.018212 -0.0909572 -0.194547 -0.297644 -0.246945 0.0464717 0.207453 0.211454 0.148637 0.0759549 0.0864873 0.162182 0.103386 0.110653 0.138682 0.117562 0.0742465 0.086998 0.197898 0.189329 0.179285 0.166038 0.0408915 -0.00446575 0.139236
255.55 0.00025 -0.0765789 0.0335926 0.0954354 0.0628943 -0.0300164 -0.152446 -0.20907 -0.246199 -0.32951 -0.381311 -0.389471 -0.369283 -0.453328 -0.401221 -0.411435 -0.396365 -0.338815 -0.375267 -0.463397 -0.432426 -0.375211 -0.232705 -0.0544475 0.032366 0.0780117 0.0564291 0.0943974 0.141607 0.106539 0.0841722 0.0113301 -0.0502681 -0.0207551 0.0444857 -0.0146201 -0.0132491 0.0155664 0.0653704 0.121888 0.143332 0.121491 0.147868 0.180643 0.202759 0.17683 0.0991277 0.0405159 -0.0221689 -0.00249761 -0.0624022 -0.151738 -0.159139 -0.268989 -0.363019 -0.335042 -0.308416 -0.387854 -0.317407 -0.218456 -0.185118 -0.0493062 0.0484287 0.131602 0.104921 0.0184407 0.0454998 0.141754 0.0702841 -0.0289455 -0.109009 -0.0836096 -0.0798908 -0.00809918 0.0634671 0.0287302 -0.0161242 -0.0855969 -0.186262 -0.290363 -0.251266 0.0358472 0.201716 0.211745 0.14856 0.0763947 0.0819023 0.156744 0.102392 0.108019 0.136593 0.115479 0.0751903 0.0879149 0.197533 0.188901 0.180168 0.170755 0.0440223 -0.00574026 0.136001
255.5525 0.00025 -0.0801847 0.0250749 0.0877714 0.0546159 -0.0345748 -0.15591 -0.20657 -0.247352 -0.330677 -0.37803 -0.391926 -0.375674 -0.460085 -0.407235 -0.40902 -0.395584 -0.347043 -0.38323 -0.465994 -0.430193 -0.372317 -0.241197 -0.0585854 0.0312604 0.0742114 0.0526375 0.085622 0.13999 0.103424 0.0797507 0.0122066 -0.0551321 -0.0295548 0.043645 -0.00993115 -0.00898895 0.0169393 0.0692957 0.127333 0.145396 0.124308 0.149279 0.186528 0.200505 0.168373 0.0931213 0.042961 -0.0220973 -0.00590263 -0.0622382 -0.149057 -0.15747 -0.267914 -0.3672 -0.338498 -0.311955 -0.392601 -0.322693 -0.218818 -0.182471 -0.0540852 0.0476709 0.136524 0.109769 0.0275651 0.0511274 0.151832 0.0914295 -0.0231111 -0.114597 -0.0904251 -0.0829175 -0.0130444 0.0581088 0.0267935 -0.0140682 -0.0809209 -0.178154 -0.282362 -0.254174 0.0258108 0.195701 0.212172 0.149047 0.0771788 0.0778782 0.151431 0.101937 0.105942 0.134787 0.113477 0.0763899 0.0890691 0.197046 0.188381 0.18094 0.175492 0.0473216 -0.00699348 0.132708
255.555 0.00025 -0.0830522 0.0164205 0.0791975 0.0466052 -0.0380324 -0.160247 -0.202938 -0.247145 -0.332168 -0.373574 -0.394454 -0.381143 -0.466192 -0.413919 -0.407107 -0.394341 -0.355571 -0.391588 -0.467007 -0.427908 -0.36878 -0.249938 -0.0636292 0.0292911 0.0701802 0.0487682 0.0779778 0.138026 0.0994914 0.0745586 0.0129201 -0.0601356 -0.0380449 0.0412641 -0.00459533 -0.00385615 0.0192445 0.073665 0.132774 0.146507 0.12681 0.150287 0.192435 0.198768 0.159682 0.086808 0.0456058 -0.0211909 -0.00865805 -0.0622915 -0.146319 -0.156376 -0.266515 -0.370711 -0.342 -0.315432 -0.395992 -0.327618 -0.219715 -0.179702 -0.0590067 0.0466326 0.141398 0.114463 0.0364407 0.0571794 0.160617 0.111874 -0.0162789 -0.119109 -0.0970281 -0.0856529 -0.01795 0.052584 0.024071 -0.0124452 -0.0769526 -0.17004 -0.273555 -0.255843 0.0161151 0.189251 0.212457 0.14999 0.0782372 0.0743395 0.146152 0.10185 0.104166 0.133025 0.111469 0.0777462 0.0903981 0.196403 0.187785 0.181508 0.180189 0.0507665 -0.00825071 0.129362
255.5575 0.00025 -0.0851368 0.00807206 0.0698182 0.038895 -0.040865 -0.165538 -0.19842 -0.245606 -0.333587 -0.368276 -0.397046 -0.385377 -0.471644 -0.421061 -0.405836 -0.392717 -0.364265 -0.400046 -0.466468 -0.425725 -0.36455 -0.258474 -0.0698129 0.026596 0.0658858 0.0447871 0.0712161 0.136026 0.0946952 0.0687284 0.0132087 -0.0652142 -0.0460279 0.0374085 0.0013201 0.00204645 0.022476 0.0786146 0.13804 0.146995 0.128895 0.151265 0.198218 0.197564 0.150928 0.0803141 0.048375 -0.0193946 -0.0107101 -0.0623826 -0.143404 -0.155707 -0.265076 -0.373796 -0.345615 -0.319312 -0.398222 -0.332063 -0.220933 -0.177081 -0.0639535 0.0453205 0.146143 0.11906 0.0450148 0.0636257 0.168445 0.131064 -0.00844946 -0.122295 -0.103013 -0.0877226 -0.0226794 0.0468226 0.020426 -0.0113989 -0.0737584 -0.161976 -0.26393 -0.25621 0.00680113 0.182261 0.21225 0.151225 0.079498 0.0711621 0.140733 0.101808 0.102431 0.131028 0.109143 0.0789891 0.0918887 0.195662 0.187206 0.181943 0.184847 0.0543743 -0.00952313 0.125958
255.56 0.00025 -0.0864298 0.000333045 0.0600294 0.0314726 -0.0434085 -0.171771 -0.193551 -0.242759 -0.334443 -0.362532 -0.39956 -0.388231 -0.476264 -0.428578 -0.405217 -0.39084 -0.373052 -0.408293 -0.464502 -0.423786 -0.359685 -0.266425 -0.0772895 0.023527 0.0612655 0.0405692 0.0650444 0.134256 0.0889951 0.0623872 0.0128384 -0.0701485 -0.0533429 0.0321477 0.00769736 0.00843313 0.0264506 0.0840738 0.142894 0.147032 0.130441 0.15247 0.20383 0.196924 0.142234 0.0737956 0.0511735 -0.0166609 -0.0120355 -0.0623595 -0.140219 -0.155433 -0.263886 -0.376714 -0.349357 -0.323986 -0.399527 -0.335765 -0.222263 -0.174931 -0.0690222 0.0436467 0.150611 0.123458 0.0533132 0.0705055 0.175659 0.148731 0.000449398 -0.124113 -0.108335 -0.089032 -0.0269542 0.0410703 0.0161035 -0.0108331 -0.0712266 -0.154188 -0.253736 -0.255302 -0.00183689 0.174971 0.2115 0.152681 0.0808711 0.0681557 0.135077 0.101605 0.100598 0.128712 0.106413 0.0800157 0.093481 0.194766 0.18662 0.182228 0.189442 0.0581606 -0.010796 0.122474
255.5625 0.00025 -0.0870243 -0.00691544 0.0498624 0.0242894 -0.0460231 -0.178449 -0.188743 -0.238636 -0.334321 -0.356498 -0.401732 -0.389887 -0.479903 -0.436467 -0.405192 -0.388883 -0.381867 -0.416102 -0.461313 -0.422261 -0.354228 -0.273741 -0.0859781 0.020352 0.0559783 0.0357223 0.0593764 0.132898 0.0824399 0.0556069 0.0115501 -0.0745876 -0.0598336 0.0257415 0.0144499 0.0151637 0.0310638 0.089884 0.147222 0.146835 0.131432 0.154124 0.209062 0.196774 0.133575 0.0672369 0.0538441 -0.0129598 -0.012694 -0.062118 -0.136933 -0.155627 -0.262954 -0.379452 -0.352943 -0.329359 -0.399782 -0.338451 -0.223623 -0.17355 -0.0740877 0.0414672 0.15453 0.127673 0.0614595 0.0777235 0.182575 0.164695 0.0101493 -0.124736 -0.112967 -0.0898892 -0.030727 0.0356389 0.0113985 -0.0106636 -0.0692697 -0.146789 -0.243131 -0.253322 -0.00966414 0.167722 0.210273 0.154348 0.0823687 0.0653045 0.129285 0.101342 0.0986671 0.126191 0.103503 0.0808479 0.0951282 0.193637 0.185907 0.18225 0.193914 0.0621367 -0.0120362 0.118922
255.565 0.00025 -0.0868174 -0.013669 0.0395244 0.0173955 -0.0487742 -0.184966 -0.184343 -0.233552 -0.33305 -0.350401 -0.403286 -0.390519 -0.482328 -0.444651 -0.405588 -0.386804 -0.390492 -0.423406 -0.457179 -0.421142 -0.348239 -0.280329 -0.0955226 0.0173073 0.0497904 0.0300467 0.0542997 0.131723 0.0751625 0.0483899 0.00915722 -0.0782932 -0.0654933 0.0184241 0.0214487 0.0220878 0.0362326 0.095881 0.151163 0.146678 0.13203 0.156336 0.213815 0.197055 0.125006 0.0606829 0.0562284 -0.00837941 -0.0127769 -0.0617351 -0.133643 -0.156169 -0.262307 -0.382034 -0.356329 -0.335117 -0.399123 -0.340229 -0.224894 -0.173095 -0.079411 0.0387334 0.157935 0.131771 0.0694732 0.0851037 0.189201 0.17882 0.0204237 -0.124192 -0.116713 -0.0903985 -0.0341118 0.0304533 0.00645799 -0.0110229 -0.0681059 -0.139938 -0.232125 -0.250289 -0.0167613 0.160572 0.208518 0.156125 0.0839292 0.0626791 0.123667 0.101245 0.0968712 0.123686 0.100616 0.0816028 0.0969594 0.192318 0.185015 0.181995 0.198243 0.0663465 -0.0132161 0.115326
255.5675 0.00025 -0.0857544 -0.0199487 0.029155 0.0113357 -0.0518229 -0.190629 -0.180277 -0.227805 -0.330487 -0.344351 -0.404085 -0.390272 -0.483496 -0.453079 -0.406457 -0.384747 -0.398861 -0.430262 -0.452432 -0.420265 -0.341746 -0.286312 -0.105579 0.0143996 0.0426892 0.0231113 0.0500424 0.130253 0.067327 0.0407526 0.00540197 -0.0811683 -0.0702853 0.0104274 0.0285133 0.0291196 0.0419294 0.102042 0.154805 0.1466 0.132263 0.159134 0.217985 0.197786 0.116595 0.0540856 0.0582661 -0.0031031 -0.012406 -0.0612268 -0.13024 -0.156805 -0.26178 -0.384529 -0.35961 -0.341223 -0.397851 -0.341074 -0.225785 -0.173732 -0.0851815 0.0355147 0.160767 0.135757 0.0774713 0.0925082 0.195612 0.191272 0.0311486 -0.122388 -0.11935 -0.0904795 -0.0372704 0.0251293 0.00111889 -0.0119611 -0.0673064 -0.133308 -0.22041 -0.246083 -0.0230923 0.153608 0.206166 0.158022 0.0856723 0.0604218 0.118222 0.101167 0.0951051 0.121117 0.0976159 0.0821347 0.0989126 0.190773 0.183932 0.181417 0.202309 0.0707006 -0.014339 0.111688
255.57 0.00025 -0.0839093 -0.0258785 0.0189283 0.00635683 -0.0555423 -0.195162 -0.176549 -0.221493 -0.326567 -0.338503 -0.404013 -0.38925 -0.483468 -0.461527 -0.407827 -0.382794 -0.407045 -0.436643 -0.447262 -0.419369 -0.334789 -0.291598 -0.11563 0.0116774 0.0350507 0.0148959 0.0470147 0.128187 0.0593388 0.0328044 0.000239753 -0.0831838 -0.0740967 0.00198447 0.035465 0.036126 0.0479317 0.108162 0.158199 0.14657 0.132329 0.162481 0.221514 0.198902 0.108358 0.0475218 0.0598974 0.00274514 -0.0115547 -0.06052 -0.126554 -0.15736 -0.261451 -0.387072 -0.362923 -0.347665 -0.396303 -0.340822 -0.225968 -0.175505 -0.0916239 0.0315747 0.162978 0.139461 0.0854305 0.0999483 0.201828 0.202336 0.0420051 -0.11943 -0.120823 -0.0902084 -0.0401931 0.0196825 -0.00451995 -0.0133905 -0.0666808 -0.126807 -0.208032 -0.240929 -0.028684 0.146981 0.203296 0.159979 0.087642 0.0584735 0.11271 0.100842 0.093183 0.11835 0.0945122 0.0824002 0.10095 0.189036 0.182637 0.180573 0.2061 0.0751951 -0.0154136 0.108009
255.5725 0.00025 -0.0814586 -0.0316339 0.00949613 0.00260799 -0.0601385 -0.198319 -0.173148 -0.214878 -0.321213 -0.332936 -0.403136 -0.387507 -0.482157 -0.469499 -0.409689 -0.380918 -0.41503 -0.44256 -0.44193 -0.41831 -0.32759 -0.296333 -0.125418 0.0091198 0.0274879 0.00555388 0.0454133 0.125286 0.0514221 0.0245638 -0.00646183 -0.0845082 -0.0770732 -0.00668058 0.042075 0.0431573 0.0540048 0.114126 0.161487 0.14661 0.132535 0.166318 0.224279 0.200369 0.10037 0.0410673 0.0612343 0.0091024 -0.0101734 -0.0596001 -0.122671 -0.157843 -0.261302 -0.389725 -0.366355 -0.35414 -0.394508 -0.339532 -0.225455 -0.178287 -0.0988406 0.0268568 0.164277 0.142696 0.0932264 0.107441 0.207797 0.212148 0.0525465 -0.115569 -0.121194 -0.0895605 -0.0427779 0.0144642 -0.0100798 -0.0154556 -0.0665616 -0.120816 -0.195177 -0.234942 -0.033586 0.140789 0.200084 0.161997 0.0898979 0.05662 0.107065 0.100323 0.0911399 0.115434 0.0913748 0.0824424 0.103104 0.187214 0.181219 0.179527 0.209689 0.0798636 -0.0164662 0.104276
255.575 0.00025 -0.0781913 -0.0372148 0.000862337 0.000113968 -0.0652752 -0.200026 -0.169902 -0.207754 -0.314348 -0.327907 -0.401413 -0.385059 -0.479633 -0.476618 -0.412088 -0.37898 -0.422936 -0.448003 -0.436659 -0.41697 -0.320157 -0.300345 -0.134707 0.00654947 0.0205933 -0.00451626 0.0451634 0.121425 0.0436216 0.015896 -0.014661 -0.0853247 -0.0792438 -0.015299 0.0481961 0.0501826 0.0599139 0.119885 0.164724 0.14672 0.133116 0.170479 0.226241 0.202166 0.0926212 0.0346997 0.0623322 0.0157768 -0.00832748 -0.0587425 -0.118806 -0.158277 -0.261302 -0.392518 -0.37009 -0.360622 -0.392759 -0.337313 -0.224128 -0.181758 -0.106791 0.0214882 0.164908 0.1454 0.100679 0.114867 0.21329 0.220812 0.0624208 -0.110963 -0.120388 -0.0885572 -0.0450235 0.00969991 -0.0154648 -0.018292 -0.0672042 -0.115507 -0.181878 -0.228024 -0.0376722 0.135174 0.196654 0.164009 0.0924817 0.0550398 0.101524 0.099854 0.089144 0.112344 0.0881859 0.0822254 0.105352 0.185379 0.179692 0.178376 0.213145 0.0847674 -0.0174681 0.100495