255.5025 0.00025 0.176047 0.0477746 -0.312811 -0.499487 -0.439082 -0.357346 -0.311679 -0.35644 -0.3337 -0.307743 -0.339571 -0.348833 -0.38708 -0.425251 -0.455969 -0.467564 -0.428756 -0.376609 -0.346612 -0.393775 -0.360116 -0.300025 -0.323394 -0.277504 -0.185618 -0.133957 -0.111695 -0.10549 -0.0993965 -0.126919 -0.0871075 -0.0649436 -0.0410167 -0.049553 -0.0259219 -0.0160691 -0.0288762 -0.0387595 -0.0523494 -0.0699051 -0.0848738 -0.12696 -0.127685 -0.116761 -0.127505 -0.151026 -0.193574 -0.213951 -0.198032 -0.165165 -0.133432 -0.142929 -0.162149 -0.203889 -0.235661 -0.184262 -0.15849 -0.113127 -0.132006 -0.150438 -0.152652 -0.143389 -0.0865719 -0.0682097 -0.0777547 -0.0802018 -0.00523374 0.0342517 0.0651405 -0.0269553 -0.181722 -0.292582 -0.406245 -0.50918 -0.675412 -0.733652 -0.669773 -0.606976 -0.625897 -0.731717 -0.734905 -0.672382 -0.691431 -0.722321 -0.734932 -0.797042 -0.737301 -0.697479 -0.799764 -0.845848 -0.788006 -0.776268 -0.785485 -0.730462 -0.625749 -0.465819 -0.149927 -0.136284 -0.142779 -0.386878
255.505 0.00025 0.182872 0.0459381 -0.310886 -0.497062 -0.434928 -0.366502 -0.313816 -0.352523 -0.328358 -0.304086 -0.336334 -0.348805 -0.388278 -0.425417 -0.453713 -0.468314 -0.433383 -0.372152 -0.335345 -0.391681 -0.375804 -0.308749 -0.319759 -0.283101 -0.187092 -0.127528 -0.103805 -0.0978602 -0.0883953 -0.113539 -0.0811888 -0.0621297 -0.0393746 -0.0471641 -0.0242825 -0.0217233 -0.0321353 -0.039959 -0.0577456 -0.0765279 -0.086968 -0.128984 -0.128731 -0.116601 -0.128959 -0.151988 -0.196052 -0.219799 -0.203491 -0.168291 -0.133599 -0.14607 -0.168324 -0.203709 -0.235809 -0.188989 -0.161234 -0.107852 -0.12899 -0.150723 -0.155398 -0.14596 -0.0917537 -0.0712226 -0.0809444 -0.0792687 -0.00685941 0.0284621 0.0586896 -0.0277689 -0.184635 -0.294509 -0.407802 -0.508479 -0.673137 -0.73293 -0.67671 -0.617145 -0.630953 -0.735203 -0.741827 -0.678475 -0.692959 -0.720258 -0.734183 -0.796371 -0.7411 -0.699018 -0.79908 -0.851423 -0.798596 -0.777324 -0.78817 -0.743696 -0.629633 -0.479236 -0.155972 -0.141722 -0.149755 -0.38998
255.5075 0.00025 0.187627 0.0442954 -0.308112 -0.493489 -0.429793 -0.376615 -0.316409 -0.348707 -0.323443 -0.301189 -0.334557 -0.349883 -0.390119 -0.425624 -0.452353 -0.468861 -0.438431 -0.368558 -0.325357 -0.387362 -0.389449 -0.317597 -0.316489 -0.288314 -0.189894 -0.121514 -0.0959833 -0.0907302 -0.0782696 -0.100494 -0.0755423 -0.0585435 -0.0365794 -0.0440427 -0.0222932 -0.0269925 -0.0349801 -0.0406602 -0.0624819 -0.0827254 -0.0889812 -0.130264 -0.128718 -0.116005 -0.13022 -0.152814 -0.196805 -0.223356 -0.20834 -0.171166 -0.133498 -0.148247 -0.173033 -0.202035 -0.234409 -0.192089 -0.162405 -0.101926 -0.125151 -0.150292 -0.156928 -0.147338 -0.0953912 -0.0728337 -0.0826458 -0.0758344 -0.00695231 0.0238855 0.0525594 -0.0285472 -0.18644 -0.295197 -0.408101 -0.506931 -0.669094 -0.730892 -0.680928 -0.625784 -0.634559 -0.736412 -0.747034 -0.682866 -0.692504 -0.717318 -0.732942 -0.79346 -0.74217 -0.698806 -0.796779 -0.8541 -0.80823 -0.777949 -0.788704 -0.7552 -0.632993 -0.490942 -0.161626 -0.145933 -0.15621 -0.392191
255.51 0.00025 0.193173 0.0423795 -0.305019 -0.48924 -0.423882 -0.387215 -0.319579 -0.344667 -0.318659 -0.298966 -0.333867 -0.351254 -0.392054 -0.42549 -0.451488 -0.469165 -0.443864 -0.36582 -0.317044 -0.381092 -0.400974 -0.326026 -0.314311 -0.292891 -0.193942 -0.116035 -0.0881375 -0.0836491 -0.0686678 -0.0878066 -0.0701822 -0.0545556 -0.0332436 -0.0406562 -0.0204589 -0.0322358 -0.0378446 -0.0414087 -0.0667395 -0.0885228 -0.0913613 -0.13139 -0.128384 -0.115434 -0.131715 -0.154269 -0.196714 -0.225108 -0.213058 -0.174402 -0.133659 -0.149884 -0.176887 -0.199707 -0.23226 -0.194451 -0.162934 -0.0964811 -0.12129 -0.149972 -0.157952 -0.148188 -0.0982986 -0.073989 -0.083923 -0.0710237 -0.00664003 0.0198142 0.0454746 -0.0303297 -0.188392 -0.296074 -0.408305 -0.505692 -0.664661 -0.728361 -0.683177 -0.633687 -0.637623 -0.736681 -0.752225 -0.686855 -0.691824 -0.714461 -0.731862 -0.790017 -0.742942 -0.698728 -0.794121 -0.855002 -0.817442 -0.778622 -0.787742 -0.765461 -0.63667 -0.501946 -0.167706 -0.149618 -0.163183 -0.394388
255.5125 0.00025 0.198986 0.0404147 -0.301969 -0.484423 -0.417137 -0.397738 -0.323464 -0.340286 -0.313865 -0.297445 -0.334013 -0.352725 -0.393894 -0.424962 -0.450927 -0.469149 -0.449431 -0.363732 -0.310728 -0.373422 -0.409968 -0.333773 -0.313447 -0.296615 -0.198857 -0.111175 -0.0805364 -0.0765126 -0.0594186 -0.0755598 -0.0649647 -0.0502548 -0.0296026 -0.0371932 -0.0188554 -0.0373952 -0.0407828 -0.0424613 -0.0704366 -0.093636 -0.0940173 -0.13252 -0.128101 -0.114871 -0.133448 -0.156522 -0.196194 -0.225226 -0.217673 -0.178161 -0.134312 -0.15112 -0.179987 -0.196908 -0.22985 -0.196426 -0.162976 -0.0917019 -0.117538 -0.149904 -0.158663 -0.148857 -0.100879 -0.0750784 -0.0850805 -0.0654048 -0.00637355 0.0159742 0.0377846 -0.0326244 -0.19034 -0.297445 -0.408846 -0.505097 -0.660088 -0.725537 -0.683902 -0.641298 -0.640978 -0.736097 -0.756382 -0.690427 -0.691145 -0.710872 -0.730495 -0.786805 -0.743745 -0.699194 -0.791333 -0.854475 -0.82588 -0.779097 -0.785284 -0.774008 -0.640614 -0.512206 -0.174536 -0.152834 -0.170639 -0.396814
255.515 0.00025 0.202278 0.03839 -0.299099 -0.479149 -0.409627 -0.407702 -0.328095 -0.335694 -0.308947 -0.296708 -0.334939 -0.35446 -0.395624 -0.424085 -0.450522 -0.468671 -0.454936 -0.362227 -0.306369 -0.364888 -0.415928 -0.340937 -0.313669 -0.299464 -0.204105 -0.107148 -0.0734956 -0.0692975 -0.0503688 -0.0638638 -0.0597659 -0.0457586 -0.0257751 -0.0336793 -0.0174248 -0.0423087 -0.0437077 -0.0439039 -0.0736535 -0.0979065 -0.0967979 -0.133761 -0.12797 -0.114198 -0.13536 -0.159545 -0.195516 -0.223861 -0.222011 -0.182367 -0.135543 -0.152045 -0.182349 -0.193766 -0.227413 -0.198034 -0.16245 -0.0876179 -0.113784 -0.150098 -0.159221 -0.149537 -0.103308 -0.0762716 -0.086308 -0.0593691 -0.00606322 0.0124253 0.0297088 -0.0354496 -0.192172 -0.29905 -0.409662 -0.505191 -0.655286 -0.722773 -0.683615 -0.648779 -0.64486 -0.73458 -0.759394 -0.693911 -0.690402 -0.706827 -0.729184 -0.783802 -0.744215 -0.700195 -0.788624 -0.852828 -0.83345 -0.77952 -0.781504 -0.780513 -0.644415 -0.521214 -0.181923 -0.1557 -0.177961 -0.399429
255.5175 0.00025 0.204941 0.0364113 -0.29649 -0.473471 -0.401654 -0.416705 -0.33351 -0.331315 -0.303776 -0.296874 -0.336472 -0.356536 -0.397308 -0.422979 -0.450154 -0.467609 -0.460158 -0.361334 -0.303764 -0.356171 -0.418511 -0.347698 -0.31453 -0.301512 -0.209131 -0.104395 -0.0672403 -0.0617953 -0.0412987 -0.0528067 -0.0545351 -0.0411841 -0.0218186 -0.0301132 -0.0160894 -0.0468624 -0.0466067 -0.0458157 -0.0765511 -0.101376 -0.0996627 -0.135289 -0.128059 -0.11339 -0.137446 -0.16327 -0.194902 -0.221202 -0.225864 -0.186931 -0.137386 -0.152785 -0.184106 -0.190467 -0.225029 -0.199293 -0.16164 -0.084559 -0.110034 -0.150599 -0.159706 -0.150391 -0.105723 -0.0776597 -0.0878396 -0.0533301 -0.00575785 0.00889733 0.0209318 -0.0391903 -0.194162 -0.300927 -0.410773 -0.50582 -0.650206 -0.720166 -0.682606 -0.656162 -0.649369 -0.732788 -0.762079 -0.697667 -0.689924 -0.702762 -0.727925 -0.780367 -0.74403 -0.701584 -0.785958 -0.850362 -0.840446 -0.780578 -0.777083 -0.785583 -0.648476 -0.529032 -0.189611 -0.15834 -0.18467 -0.401386
255.52 0.00025 0.207874 0.0343152 -0.294188 -0.467339 -0.393335 -0.424286 -0.339563 -0.327628 -0.298271 -0.297951 -0.338409 -0.358732 -0.398952 -0.421652 -0.449791 -0.465877 -0.464893 -0.361145 -0.302642 -0.347943 -0.417609 -0.354227 -0.315736 -0.302902 -0.213492 -0.103052 -0.0616798 -0.0538833 -0.0320689 -0.0424098 -0.0492164 -0.0366263 -0.0178175 -0.0265574 -0.0148561 -0.0509721 -0.0495268 -0.0482551 -0.0790936 -0.104079 -0.102459 -0.137189 -0.128428 -0.112403 -0.13962 -0.16758 -0.194521 -0.217542 -0.229097 -0.19178 -0.139916 -0.153426 -0.185344 -0.187022 -0.222565 -0.200216 -0.160764 -0.0827029 -0.106303 -0.151279 -0.159976 -0.151304 -0.108199 -0.0792637 -0.0895767 -0.0475605 -0.00580254 0.0051244 0.0115699 -0.0438762 -0.19624 -0.303138 -0.41232 -0.506848 -0.644684 -0.717553 -0.681292 -0.663787 -0.655095 -0.73145 -0.764784 -0.701454 -0.689865 -0.698791 -0.726128 -0.776112 -0.742782 -0.703135 -0.783306 -0.847283 -0.846969 -0.782604 -0.772439 -0.78969 -0.653502 -0.536223 -0.197352 -0.160142 -0.190755 -0.40234
255.5225 0.00025 0.210669 0.0320795 -0.292188 -0.460818 -0.384671 -0.430187 -0.345968 -0.324976 -0.292496 -0.299778 -0.340708 -0.36099 -0.400561 -0.420111 -0.449557 -0.463661 -0.469016 -0.361837 -0.302765 -0.340741 -0.413392 -0.360359 -0.317355 -0.303681 -0.216835 -0.10294 -0.0567242 -0.045621 -0.0227904 -0.0327394 -0.0437081 -0.0322061 -0.0138951 -0.0231163 -0.0137598 -0.0545068 -0.0524601 -0.051205 -0.0812431 -0.10603 -0.105069 -0.139482 -0.129123 -0.111299 -0.141825 -0.172273 -0.194509 -0.213272 -0.231597 -0.196852 -0.143196 -0.154004 -0.186039 -0.183511 -0.220033 -0.200744 -0.159869 -0.0820258 -0.102716 -0.151888 -0.160017 -0.152005 -0.110623 -0.0810148 -0.0913287 -0.042393 -0.00619494 0.00137832 0.00205202 -0.0493876 -0.198345 -0.305635 -0.41426 -0.508343 -0.639122 -0.715278 -0.680166 -0.671888 -0.66209 -0.730798 -0.767474 -0.705293 -0.690286 -0.69478 -0.724002 -0.771369 -0.740269 -0.704555 -0.780775 -0.843873 -0.852684 -0.785145 -0.767237 -0.792443 -0.659285 -0.543056 -0.205047 -0.160777 -0.196519 -0.403226
255.525 0.00025 0.212987 0.0296954 -0.290651 -0.453913 -0.375629 -0.43431 -0.352394 -0.323722 -0.286683 -0.302214 -0.343436 -0.363271 -0.402211 -0.418396 -0.449444 -0.461117 -0.47228 -0.36353 -0.303771 -0.334878 -0.406371 -0.365614 -0.319794 -0.303511 -0.218942 -0.103747 -0.0525856 -0.0371238 -0.0134865 -0.0237311 -0.0379858 -0.0280707 -0.0101064 -0.01974 -0.0126671 -0.0571892 -0.0553028 -0.054605 -0.0830175 -0.107262 -0.107467 -0.142083 -0.130172 -0.110224 -0.144056 -0.17714 -0.194979 -0.208775 -0.233277 -0.20205 -0.147216 -0.154568 -0.186164 -0.180036 -0.217445 -0.200749 -0.158959 -0.0824311 -0.0993707 -0.152327 -0.159796 -0.152534 -0.113008 -0.0829178 -0.0929304 -0.0378818 -0.00637174 -0.0020403 -0.00748461 -0.0557174 -0.200631 -0.308278 -0.416464 -0.510405 -0.633991 -0.713294 -0.679097 -0.679965 -0.669763 -0.730659 -0.769631 -0.709168 -0.69116 -0.690734 -0.722055 -0.766612 -0.737028 -0.706078 -0.778364 -0.840305 -0.857629 -0.788325 -0.761777 -0.793613 -0.665294 -0.549287 -0.212545 -0.160403 -0.201871 -0.404574
255.5275 0.00025 0.214908 0.0271415 -0.289586 -0.446818 -0.366297 -0.436681 -0.358461 -0.323976 -0.281231 -0.304974 -0.346609 -0.365654 -0.40403 -0.416498 -0.449349 -0.458402 -0.474472 -0.366207 -0.305546 -0.330603 -0.397302 -0.369433 -0.32336 -0.301896 -0.220058 -0.105343 -0.0494881 -0.0284908 -0.00414879 -0.0152978 -0.0320325 -0.024281 -0.00653182 -0.0164332 -0.0114295 -0.05881 -0.0580154 -0.0583635 -0.0844764 -0.107909 -0.109705 -0.144821 -0.131566 -0.109277 -0.146308 -0.18195 -0.195965 -0.204315 -0.234058 -0.207171 -0.151872 -0.155207 -0.185765 -0.176579 -0.214798 -0.200223 -0.158124 -0.0838011 -0.0962787 -0.152587 -0.159574 -0.153025 -0.115586 -0.0850753 -0.0941968 -0.0337991 -0.00574197 -0.00537175 -0.0170525 -0.0629126 -0.203134 -0.310865 -0.41887 -0.512911 -0.629156 -0.710934 -0.677613 -0.687333 -0.677673 -0.730969 -0.770874 -0.712772 -0.692405 -0.687025 -0.720284 -0.761941 -0.733754 -0.708093 -0.775881 -0.836387 -0.861952 -0.792639 -0.756926 -0.793642 -0.671645 -0.554918 -0.219822 -0.159274 -0.206431 -0.405726
255.53 0.00025 0.216596 0.0243918 -0.28871 -0.439768 -0.356818 -0.437137 -0.363888 -0.32572 -0.276529 -0.307741 -0.350255 -0.368222 -0.406117 -0.414366 -0.449153 -0.455735 -0.475356 -0.369826 -0.307915 -0.328018 -0.387108 -0.371327 -0.328145 -0.29847 -0.220597 -0.107586 -0.0475346 -0.0198823 0.00519664 -0.00727504 -0.0257974 -0.0209063 -0.00335473 -0.0132999 -0.00994261 -0.0593697 -0.060602 -0.0623661 -0.0856635 -0.108181 -0.11185 -0.147462 -0.133272 -0.108602 -0.148593 -0.186491 -0.197437 -0.200124 -0.23389 -0.211965 -0.157034 -0.15598 -0.184812 -0.173148 -0.212082 -0.19907 -0.157374 -0.0860309 -0.0936485 -0.152746 -0.159535 -0.153554 -0.118375 -0.0874115 -0.0950576 -0.0302208 -0.00420939 -0.00850861 -0.0261827 -0.0707083 -0.205785 -0.313524 -0.42133 -0.51554 -0.624382 -0.707955 -0.675694 -0.693717 -0.685665 -0.731922 -0.771544 -0.7161 -0.693922 -0.683533 -0.718393 -0.757405 -0.730462 -0.710445 -0.773367 -0.831974 -0.865244 -0.797675 -0.752548 -0.792558 -0.678411 -0.56028 -0.227166 -0.1577 -0.21055 -0.406513
255.5325 0.00025 0.218178 0.0215677 -0.287912 -0.432985 -0.347286 -0.435612 -0.368557 -0.328877 -0.273034 -0.31025 -0.354232 -0.37117 -0.408537 -0.412061 -0.44879 -0.453347 -0.474782 -0.374384 -0.310784 -0.327012 -0.37645 -0.371075 -0.333808 -0.293121 -0.220745 -0.110295 -0.0466479 -0.0114735 0.0144411 0.000467011 -0.0192918 -0.0179666 -0.000736674 -0.0104364 -0.00821112 -0.0589415 -0.0630145 -0.0665306 -0.0865923 -0.10826 -0.113882 -0.149745 -0.135268 -0.108366 -0.150881 -0.190662 -0.199375 -0.196458 -0.232778 -0.216234 -0.162551 -0.156915 -0.183323 -0.169822 -0.209282 -0.197226 -0.156926 -0.0891555 -0.091747 -0.15288 -0.159722 -0.154004 -0.121083 -0.0898743 -0.0955772 -0.0277273 -0.00227324 -0.0113474 -0.0345806 -0.0787816 -0.208499 -0.316379 -0.423946 -0.51831 -0.619668 -0.704426 -0.673656 -0.699211 -0.693632 -0.733515 -0.77211 -0.719432 -0.695707 -0.680122 -0.716314 -0.753132 -0.727081 -0.71314 -0.771258 -0.827618 -0.86774 -0.803478 -0.748679 -0.790555 -0.685604 -0.565993 -0.235118 -0.156294 -0.214987 -0.407875
255.535 0.00025 0.219676 0.0186263 -0.287235 -0.42668 -0.337801 -0.431986 -0.372343 -0.333248 -0.27102 -0.312338 -0.358142 -0.374732 -0.411359 -0.409794 -0.448179 -0.451403 -0.472744 -0.379798 -0.31402 -0.327307 -0.365871 -0.368849 -0.339632 -0.286102 -0.220489 -0.11322 -0.046613 -0.00346359 0.0234978 0.00799183 -0.0126077 -0.015342 0.00119341 -0.00795625 -0.00621049 -0.0574051 -0.0651582 -0.0707906 -0.0874022 -0.108401 -0.11578 -0.1515 -0.137499 -0.108778 -0.153185 -0.194403 -0.201775 -0.193556 -0.230835 -0.219918 -0.168323 -0.158105 -0.181441 -0.166614 -0.206331 -0.194745 -0.157055 -0.0931866 -0.0905691 -0.152702 -0.160037 -0.154131 -0.123646 -0.092552 -0.0956561 -0.0263051 -9.38369e-05 -0.0142093 -0.0424613 -0.0872127 -0.211419 -0.319339 -0.426585 -0.521092 -0.615139 -0.700392 -0.67187 -0.704043 -0.701417 -0.735588 -0.772797 -0.723047 -0.697924 -0.677025 -0.714251 -0.749053 -0.723688 -0.716202 -0.769799 -0.823546 -0.869753 -0.810201 -0.745729 -0.78779 -0.693064 -0.572411 -0.243857 -0.155412 -0.219808 -0.410048
255.5375 0.00025 0.221079 0.0155798 -0.286661 -0.42086 -0.328514 -0.426248 -0.375191 -0.338608 -0.270675 -0.314111 -0.36168 -0.379141 -0.41466 -0.407687 -0.447145 -0.449901 -0.469343 -0.385845 -0.317509 -0.328743 -0.355957 -0.36509 -0.344666 -0.278053 -0.21959 -0.116199 -0.0472345 0.00386683 0.0322793 0.0153929 -0.00585226 -0.012934 0.00231694 -0.00598251 -0.00383238 -0.0546688 -0.0669752 -0.0750905 -0.0883263 -0.108952 -0.117587 -0.152659 -0.139789 -0.109974 -0.155521 -0.197608 -0.204515 -0.191649 -0.228212 -0.222996 -0.174265 -0.159602 -0.179228 -0.163424 -0.203076 -0.191626 -0.1578 -0.0979103 -0.0898896 -0.151967 -0.160504 -0.154145 -0.12647 -0.0956062 -0.0953119 -0.0255385 0.00248185 -0.0171875 -0.0500545 -0.0962958 -0.214849 -0.322472 -0.429085 -0.523741 -0.610941 -0.695821 -0.670487 -0.70833 -0.709191 -0.738164 -0.773467 -0.726886 -0.700568 -0.674152 -0.711993 -0.745018 -0.720192 -0.719196 -0.768885 -0.81959 -0.870944 -0.817447 -0.743581 -0.784 -0.700253 -0.579548 -0.253368 -0.155005 -0.224527 -0.412225
255.54 0.00025 0.22229 0.0125369 -0.286038 -0.415545 -0.319634 -0.418439 -0.376908 -0.344614 -0.272071 -0.315734 -0.364536 -0.384588 -0.418661 -0.405916 -0.445546 -0.44876 -0.46476 -0.392208 -0.321159 -0.331334 -0.347145 -0.360206 -0.347941 -0.269733 -0.217761 -0.119153 -0.0482965 0.0103027 0.0407154 0.0227843 0.000847411 -0.0107395 0.00256711 -0.00451755 -0.0010203 -0.05073 -0.068408 -0.0793694 -0.0895572 -0.110193 -0.119371 -0.1532 -0.141942 -0.112027 -0.1579 -0.200261 -0.207473 -0.19085 -0.225086 -0.225406 -0.180179 -0.161385 -0.176757 -0.160284 -0.199533 -0.188011 -0.159032 -0.103033 -0.0896613 -0.150593 -0.161141 -0.154309 -0.129777 -0.0991333 -0.0947962 -0.0254038 0.00535016 -0.0201434 -0.0573292 -0.105901 -0.218677 -0.325976 -0.431656 -0.526393 -0.607314 -0.690836 -0.669498 -0.71224 -0.717442 -0.741452 -0.773981 -0.730579 -0.70332 -0.671303 -0.709322 -0.741065 -0.716619 -0.72218 -0.768658 -0.815945 -0.871418 -0.824951 -0.742194 -0.779427 -0.707054 -0.587469 -0.263637 -0.155028 -0.229226 -0.414409
255.5425 0.00025 0.223308 0.00947093 -0.285307 -0.410572 -0.311358 -0.408789 -0.377232 -0.351014 -0.275213 -0.317384 -0.366554 -0.391079 -0.423506 -0.404606 -0.443252 -0.447783 -0.459255 -0.398598 -0.324948 -0.33492 -0.339755 -0.354533 -0.348771 -0.26168 -0.214826 -0.121875 -0.0494818 0.0157031 0.0486975 0.0301853 0.00744377 -0.0085905 0.00201638 -0.00361284 0.00217101 -0.0456823 -0.0693432 -0.0835426 -0.0911725 -0.112172 -0.121123 -0.153101 -0.143797 -0.114965 -0.160344 -0.202393 -0.210519 -0.191162 -0.221619 -0.227073 -0.18585 -0.163474 -0.174229 -0.157346 -0.195871 -0.184164 -0.160762 -0.108468 -0.0900472 -0.148665 -0.161899 -0.154537 -0.133236 -0.102939 -0.0941547 -0.0258568 0.0082338 -0.0228084 -0.0638937 -0.115362 -0.222703 -0.329882 -0.434568 -0.529185 -0.604264 -0.685581 -0.668851 -0.715876 -0.726123 -0.7455 -0.774311 -0.733866 -0.706218 -0.668863 -0.706736 -0.737269 -0.713033 -0.725248 -0.769054 -0.812746 -0.871429 -0.832375 -0.741643 -0.774461 -0.713408 -0.596195 -0.274271 -0.15534 -0.234073 -0.417116
255.545 0.00025 0.224151 0.00638583 -0.28433 -0.405847 -0.303819 -0.397703 -0.375936 -0.357577 -0.28008 -0.31926 -0.367736 -0.398326 -0.429286 -0.403878 -0.440321 -0.446682 -0.453248 -0.404738 -0.328778 -0.339189 -0.334114 -0.348372 -0.346935 -0.254077 -0.210711 -0.124106 -0.0505057 0.0199022 0.0561092 0.0375356 0.0139689 -0.00628871 0.000786723 -0.00337556 0.00558658 -0.039646 -0.0696475 -0.087512 -0.093268 -0.114831 -0.122723 -0.152376 -0.145215 -0.118753 -0.162905 -0.204029 -0.213494 -0.192517 -0.217954 -0.228028 -0.191175 -0.165904 -0.171831 -0.154627 -0.192051 -0.180284 -0.163018 -0.114178 -0.0910601 -0.146074 -0.162461 -0.154621 -0.136564 -0.106619 -0.093263 -0.0264888 0.0109712 -0.0250926 -0.0697281 -0.124565 -0.227156 -0.334161 -0.437757 -0.532118 -0.601755 -0.679912 -0.668191 -0.719033 -0.734761 -0.750007 -0.774328 -0.736668 -0.709455 -0.667116 -0.704447 -0.733869 -0.709358 -0.727806 -0.769558 -0.809658 -0.870733 -0.839512 -0.742027 -0.769045 -0.718691 -0.605334 -0.285033 -0.155694 -0.238727 -0.419961
255.5475 0.00025 0.224786 0.00325929 -0.282975 -0.401187 -0.29704 -0.385671 -0.372816 -0.363881 -0.28653 -0.321645 -0.368249 -0.405918 -0.436029 -0.403914 -0.436892 -0.445188 -0.447151 -0.410404 -0.332617 -0.343802 -0.330438 -0.341906 -0.34275 -0.246653 -0.205577 -0.125716 -0.0511943 0.0228095 0.0627872 0.0448069 0.0204062 -0.00381639 -0.000975449 -0.00381883 0.00910399 -0.0327875 -0.0692119 -0.091197 -0.0959642 -0.118073 -0.124081 -0.15105 -0.146107 -0.12329 -0.165704 -0.205264 -0.216324 -0.194869 -0.21424 -0.228328 -0.196046 -0.168558 -0.16961 -0.151984 -0.187853 -0.176404 -0.165597 -0.119949 -0.092622 -0.142693 -0.162785 -0.154664 -0.139924 -0.110218 -0.0923826 -0.0271497 0.0133572 -0.0272338 -0.0753363 -0.133887 -0.232223 -0.33881 -0.440945 -0.535036 -0.599851 -0.673818 -0.667299 -0.72149 -0.742889 -0.75468 -0.773964 -0.738741 -0.712762 -0.665757 -0.702036 -0.730788 -0.705769 -0.730119 -0.770481 -0.80676 -0.869348 -0.846437 -0.743373 -0.763133 -0.722548 -0.614881 -0.296152 -0.156095 -0.242925 -0.422587
255.55 0.00025 0.225147 0.000149118 -0.281142 -0.396418 -0.291065 -0.373133 -0.36774 -0.369495 -0.294418 -0.324891 -0.368377 -0.413465 -0.443696 -0.404982 -0.433166 -0.443046 -0.441251 -0.415332 -0.336519 -0.348457 -0.328791 -0.335156 -0.336918 -0.239049 -0.199578 -0.126554 -0.0513584 0.0244841 0.068613 0.0519113 0.0266439 -0.00129681 -0.00308258 -0.0048314 0.0126338 -0.0252355 -0.0679274 -0.094543 -0.0993232 -0.121792 -0.125241 -0.149274 -0.146468 -0.128346 -0.168811 -0.206167 -0.21898 -0.198107 -0.210698 -0.228074 -0.200377 -0.171333 -0.167629 -0.149338 -0.183173 -0.172626 -0.168205 -0.125536 -0.0947253 -0.138784 -0.162952 -0.154923 -0.143516 -0.114147 -0.0920262 -0.0277753 0.0153509 -0.0291308 -0.0808089 -0.14314 -0.237716 -0.343884 -0.444198 -0.537641 -0.598455 -0.667567 -0.666403 -0.723282 -0.750309 -0.759429 -0.773394 -0.740239 -0.716001 -0.664547 -0.69922 -0.727724 -0.702525 -0.732539 -0.772155 -0.804271 -0.867654 -0.852997 -0.74567 -0.757062 -0.725042 -0.624872 -0.307436 -0.156552 -0.24672 -0.425055
255.5525 0.00025 0.225214 -0.00289176 -0.278817 -0.391413 -0.285962 -0.36047 -0.36081 -0.373906 -0.303466 -0.329213 -0.368478 -0.420638 -0.451998 -0.407378 -0.429363 -0.440183 -0.435655 -0.419359 -0.340566 -0.352683 -0.329014 -0.328175 -0.330231 -0.230945 -0.192706 -0.126507 -0.050919 0.0250412 0.0734756 0.0587167 0.0326425 0.00129186 -0.00527883 -0.00634453 0.0160799 -0.0170787 -0.0656859 -0.0974778 -0.10329 -0.125952 -0.126362 -0.147234 -0.146349 -0.133606 -0.172257 -0.206756 -0.2214 -0.202099 -0.207539 -0.227334 -0.204148 -0.174185 -0.165959 -0.146766 -0.178106 -0.1692 -0.170827 -0.131025 -0.0975697 -0.134574 -0.162968 -0.155491 -0.147665 -0.118407 -0.0922185 -0.0281204 0.0169597 -0.0304833 -0.0856821 -0.151867 -0.243435 -0.349293 -0.447845 -0.539944 -0.597299 -0.66132 -0.665679 -0.724813 -0.757022 -0.764377 -0.773032 -0.741705 -0.719341 -0.663621 -0.696069 -0.724697 -0.699426 -0.734469 -0.774158 -0.80209 -0.865799 -0.85905 -0.749098 -0.751133 -0.726026 -0.63501 -0.318811 -0.157183 -0.250358 -0.427421
255.555 0.00025 0.224981 -0.00573228 -0.276008 -0.386011 -0.281706 -0.347985 -0.352308 -0.376603 -0.313231 -0.33478 -0.368945 -0.427262 -0.460587 -0.411369 -0.4257 -0.436606 -0.43037 -0.422393 -0.344864 -0.356099 -0.33083 -0.321245 -0.323375 -0.222213 -0.184931 -0.125479 -0.0498853 0.0246669 0.0772396 0.0650964 0.0385033 0.00399529 -0.00728452 -0.008227 0.0192875 -0.00851904 -0.0624466 -0.0999073 -0.107735 -0.130455 -0.127523 -0.145022 -0.145821 -0.138788 -0.176127 -0.207111 -0.223513 -0.206663 -0.204891 -0.226133 -0.207256 -0.176954 -0.164625 -0.144278 -0.172631 -0.166354 -0.173525 -0.136351 -0.100999 -0.130132 -0.162691 -0.156128 -0.152219 -0.122733 -0.0927932 -0.028076 0.0181182 -0.0310989 -0.089798 -0.159914 -0.249404 -0.354753 -0.451851 -0.542192 -0.596427 -0.655054 -0.664958 -0.726317 -0.763425 -0.770086 -0.773375 -0.743276 -0.722773 -0.66322 -0.692707 -0.721709 -0.696433 -0.735817 -0.776318 -0.799912 -0.863603 -0.864653 -0.753708 -0.7454 -0.725484 -0.645401 -0.330628 -0.158069 -0.253823 -0.429715
255.5575 0.00025 0.224514 -0.00839126 -0.272682 -0.380157 -0.278227 -0.335949 -0.342653 -0.377227 -0.323181 -0.341708 -0.370228 -0.433277 -0.468995 -0.417151 -0.422482 -0.432453 -0.425304 -0.424353 -0.34951 -0.358371 -0.333792 -0.31489 -0.316576 -0.21299 -0.176148 -0.123447 -0.0483374 0.0236637 0.0797834 0.0710131 0.0442099 0.00679284 -0.00881123 -0.0102816 0.0220868 0.000104893 -0.0582762 -0.101831 -0.112519 -0.135147 -0.128707 -0.142693 -0.144952 -0.143679 -0.180471 -0.20736 -0.225339 -0.211551 -0.202793 -0.224536 -0.209691 -0.179566 -0.163644 -0.141836 -0.166698 -0.164146 -0.176249 -0.141295 -0.104844 -0.125699 -0.161951 -0.15667 -0.15686 -0.127039 -0.0938761 -0.0277879 0.0187782 -0.0309735 -0.0934346 -0.167505 -0.255797 -0.360364 -0.456048 -0.544534 -0.596115 -0.649056 -0.664171 -0.727701 -0.769538 -0.776665 -0.774502 -0.744772 -0.726163 -0.663272 -0.689191 -0.718733 -0.693554 -0.736815 -0.778876 -0.797786 -0.861003 -0.869529 -0.759352 -0.740008 -0.723572 -0.656064 -0.342953 -0.159228 -0.257081 -0.431989
255.56 0.00025 0.223734 -0.0107971 -0.268775 -0.373887 -0.2754 -0.324552 -0.332285 -0.375497 -0.33268 -0.34995 -0.372741 -0.438725 -0.476809 -0.424766 -0.419979 -0.427919 -0.420341 -0.425197 -0.354594 -0.359393 -0.337372 -0.309712 -0.309802 -0.203697 -0.166239 -0.120247 -0.0464095 0.0223308 0.0811465 0.0763396 0.0497039 0.00967769 -0.00967671 -0.0124183 0.0243794 0.00852153 -0.0533142 -0.103317 -0.117461 -0.139875 -0.12998 -0.140445 -0.143902 -0.148176 -0.18525 -0.207688 -0.226933 -0.216547 -0.201322 -0.222677 -0.211539 -0.182047 -0.163059 -0.139541 -0.160391 -0.162572 -0.178939 -0.145836 -0.109052 -0.121478 -0.160785 -0.157243 -0.161729 -0.131425 -0.0956835 -0.0275758 0.0188703 -0.0302231 -0.096822 -0.17475 -0.262632 -0.366362 -0.460648 -0.546852 -0.596315 -0.643528 -0.663345 -0.729151 -0.775105 -0.783184 -0.775904 -0.746127 -0.72948 -0.66375 -0.685548 -0.715792 -0.690877 -0.737533 -0.782052 -0.79629 -0.858263 -0.873549 -0.765987 -0.735254 -0.72026 -0.666651 -0.355747 -0.160683 -0.260155 -0.434324
255.5625 0.00025 0.222613 -0.0127574 -0.264294 -0.36719 -0.273049 -0.313968 -0.321613 -0.371349 -0.341157 -0.35935 -0.376928 -0.443761 -0.483688 -0.434143 -0.418447 -0.423144 -0.415409 -0.424926 -0.360158 -0.359202 -0.34093 -0.306253 -0.302904 -0.194729 -0.1554 -0.115767 -0.0443687 0.0209653 0.081482 0.0809696 0.0549496 0.0125799 -0.00978028 -0.0144688 0.0261634 0.016461 -0.047727 -0.10431 -0.122435 -0.144567 -0.131474 -0.138492 -0.142825 -0.152264 -0.190415 -0.208299 -0.228375 -0.221501 -0.200496 -0.220678 -0.212868 -0.184326 -0.162909 -0.137395 -0.15382 -0.161488 -0.181482 -0.149994 -0.11347 -0.117408 -0.159164 -0.157853 -0.166728 -0.135927 -0.098173 -0.0276623 0.0184075 -0.0289842 -0.0999152 -0.18153 -0.269794 -0.372505 -0.46567 -0.549124 -0.596682 -0.638423 -0.66252 -0.730925 -0.780141 -0.789246 -0.777415 -0.747397 -0.73275 -0.664884 -0.681867 -0.712843 -0.688453 -0.737869 -0.785614 -0.795594 -0.855749 -0.876809 -0.773527 -0.731164 -0.715576 -0.676916 -0.369172 -0.162542 -0.263094 -0.436794
255.565 0.00025 0.221136 -0.0142393 -0.259258 -0.360188 -0.271058 -0.304279 -0.310895 -0.365008 -0.348082 -0.369543 -0.383175 -0.44848 -0.489392 -0.445165 -0.418076 -0.41837 -0.410491 -0.423563 -0.365975 -0.357932 -0.344029 -0.304866 -0.295838 -0.186331 -0.143844 -0.109758 -0.042371 0.0196929 0.0809422 0.0848157 0.0598479 0.0154946 -0.00902973 -0.0162206 0.0274274 0.0236287 -0.041722 -0.10471 -0.127294 -0.149119 -0.133252 -0.136921 -0.141733 -0.155858 -0.195844 -0.209322 -0.22972 -0.226277 -0.200257 -0.218621 -0.213714 -0.186236 -0.163081 -0.135366 -0.147156 -0.160731 -0.183756 -0.153644 -0.117832 -0.113521 -0.157055 -0.158305 -0.171547 -0.140617 -0.101323 -0.0281771 0.0176592 -0.0272304 -0.102661 -0.187718 -0.277031 -0.378658 -0.470916 -0.551389 -0.597122 -0.633778 -0.661603 -0.732733 -0.784621 -0.795197 -0.779499 -0.748649 -0.73596 -0.666597 -0.678126 -0.709822 -0.686052 -0.73756 -0.789174 -0.795244 -0.853326 -0.879305 -0.781691 -0.727781 -0.709736 -0.686689 -0.383329 -0.164839 -0.265902 -0.439426
255.5675 0.00025 0.219326 -0.0152259 -0.253826 -0.353049 -0.269344 -0.29557 -0.300181 -0.356907 -0.353099 -0.380039 -0.391758 -0.452996 -0.493856 -0.457604 -0.419001 -0.413885 -0.405591 -0.421221 -0.371648 -0.355821 -0.346443 -0.305534 -0.288691 -0.178627 -0.131937 -0.101998 -0.040445 0.0184628 0.0797848 0.0877521 0.0642629 0.018438 -0.00746943 -0.0175757 0.0280724 0.0297036 -0.035675 -0.10449 -0.131859 -0.153362 -0.13532 -0.135744 -0.140555 -0.15885 -0.201226 -0.210789 -0.230989 -0.230731 -0.200548 -0.216623 -0.214166 -0.187671 -0.163506 -0.133482 -0.140597 -0.16022 -0.185877 -0.156827 -0.122055 -0.10994 -0.154536 -0.158598 -0.176126 -0.145625 -0.105152 -0.0292261 0.0169997 -0.0248772 -0.105059 -0.193406 -0.284252 -0.385054 -0.476512 -0.55364 -0.597698 -0.629749 -0.660496 -0.734456 -0.788547 -0.801061 -0.782296 -0.749911 -0.739018 -0.668751 -0.674336 -0.706701 -0.683743 -0.736711 -0.792693 -0.795299 -0.850934 -0.880964 -0.790324 -0.725247 -0.702872 -0.695681 -0.398153 -0.167584 -0.268557 -0.442151
255.57 0.00025 0.217202 -0.0157244 -0.24797 -0.345977 -0.26784 -0.28792 -0.289404 -0.347601 -0.356014 -0.390218 -0.402675 -0.457344 -0.497154 -0.471114 -0.421387 -0.410022 -0.400744 -0.418046 -0.376818 -0.353219 -0.348107 -0.307722 -0.281769 -0.17166 -0.120124 -0.0924048 -0.0384698 0.0171719 0.0783522 0.0897946 0.0681912 0.0215083 -0.00509484 -0.0184457 0.0280882 0.0344982 -0.0298704 -0.103576 -0.135968 -0.157187 -0.137676 -0.135048 -0.139381 -0.161239 -0.206279 -0.21271 -0.232238 -0.234795 -0.201314 -0.214753 -0.214287 -0.188616 -0.16417 -0.131711 -0.134346 -0.159985 -0.188056 -0.159741 -0.126174 -0.106872 -0.151869 -0.158822 -0.180214 -0.150802 -0.109533 -0.0310508 0.0166848 -0.0219794 -0.107133 -0.198638 -0.291444 -0.391673 -0.482406 -0.556029 -0.598307 -0.626143 -0.659155 -0.736406 -0.792202 -0.806363 -0.785381 -0.751152 -0.741788 -0.671316 -0.670596 -0.703468 -0.681631 -0.735637 -0.796257 -0.795973 -0.848698 -0.881734 -0.799356 -0.72363 -0.695068 -0.703565 -0.413553 -0.170724 -0.27099 -0.444798
255.5725 0.00025 0.214817 -0.0157747 -0.24171 -0.339152 -0.266488 -0.281456 -0.278347 -0.337858 -0.356823 -0.399507 -0.415714 -0.461713 -0.499521 -0.485267 -0.425304 -0.406964 -0.395915 -0.41415 -0.381175 -0.350334 -0.349086 -0.310619 -0.275536 -0.165438 -0.108738 -0.0810878 -0.0361699 0.015672 0.0769135 0.0911465 0.0715989 0.0247031 -0.00201408 -0.0188037 0.0274451 0.0379069 -0.0245197 -0.101912 -0.139503 -0.160553 -0.140377 -0.134951 -0.138389 -0.163164 -0.210944 -0.215096 -0.233574 -0.238439 -0.202436 -0.213068 -0.21413 -0.189108 -0.16503 -0.130028 -0.128653 -0.159984 -0.190112 -0.162312 -0.13015 -0.104376 -0.149072 -0.15885 -0.183624 -0.156126 -0.11453 -0.0339576 0.0167251 -0.0187988 -0.108926 -0.203363 -0.298395 -0.398337 -0.488347 -0.558678 -0.598965 -0.622895 -0.657648 -0.738513 -0.795741 -0.811082 -0.788632 -0.752464 -0.744204 -0.674052 -0.666928 -0.700233 -0.679689 -0.734383 -0.799743 -0.797268 -0.846653 -0.881843 -0.808636 -0.722933 -0.68647 -0.710056 -0.42939 -0.174247 -0.273246 -0.44741