255.5025 0.00025 244.204 193.287 -83.5677 -76.1475 -52.2742 -40.0156 -9.84737 -6.35728 0.0739955 13.7269 35.4983 28.9427 33.0577 4.64808 -13.3867 -8.68045 -2.34286 0.707652 -3.63999 5.35943 19.9344 7.84823 9.01534 11.0097 30.0149 39.2433 37.0857 43.9967 58.6342 73.7407 65.8982 73.2007 84.7916 83.7693 73.8847 59.7928 46.6738 35.2137 27.0906 27.4084 17.9094 18.2366 22.2049 28.6955 42.3456 50.2525 50.3605 55.3172 59.7071 46.9023 45.5484 53.0821 72.8435 97.041 119.018 139.377 150.538 164.454 151.937 128.272 124.19 110.535 123.882 119.73 117.23 110.045 109.653 116.868 127.334 132.476 138.717 134.563 152.435 166.872 200.06 214.974 244.807 261.057 267.501 258.753 241.837 238.94 241.18 245.343 249.37 260.005 274.617 287.774 298.934 266.192 244.138 235.156 234.699 221.469 216.495 201.011 176.277 118.929 48.6887 47.4996
255.505 0.00025 470.573 -50.7713 -85.5082 -73.4783 -52.5915 -40.6291 -7.55725 -5.04028 8.9092 16.4253 35.9665 30.2193 36.199 6.81533 -11.0466 -8.12388 -4.3749 -0.815099 -7.41376 0.95203 21.0765 7.76647 8.31928 11.1916 30.4724 39.3343 36.3751 43.0841 58.8701 74.5301 67.1845 77.6479 88.2203 85.9882 75.3596 60.7119 47.9275 34.9238 25.4585 25.1 16.5829 18.3887 21.9486 27.942 42.6399 51.6208 52.8279 57.0689 59.0071 46.8734 44.7367 50.0847 71.5761 94.7415 115.581 135.586 147.7 162.962 152.558 127.196 124.553 109.322 125.03 122.132 119.018 112.24 111.782 118.592 129.527 135.085 141.15 135.878 152.494 168.597 200.489 214.98 244.352 261.689 267.847 259.946 242.476 239.535 241.931 245.7 249.854 260.556 274.928 286.419 298.114 267.566 246.177 234.164 234.655 221.814 216.13 200.16 175.178 118.398 48.4603 48.402
255.5075 0.00025 258.275 -59.5641 -87.3056 -70.2922 -52.5268 -41.7319 -5.79324 -4.79509 16.434 18.9455 37.0622 31.5513 38.2326 7.99861 -8.74576 -6.9708 -7.03757 -2.93708 -10.6948 -2.79791 22.928 9.03574 8.23981 12.0856 30.5123 38.7219 35.376 41.4655 58.258 73.9034 67.5975 80.9471 90.5738 87.4593 76.4311 61.0672 48.5116 34.4631 23.8465 22.5483 14.7033 18.1833 21.4595 26.5407 41.8926 51.8122 54.1034 57.9445 57.6496 46.1754 43.853 47.2102 70.4327 92.7901 112.278 132.099 144.842 161.37 153.23 126.214 124.732 107.754 125.178 124.266 120.641 114.834 114.412 120.561 131.621 137.656 143.579 137 151.993 169.864 200.422 215.141 245.003 264.221 269.897 262.528 244.811 241.287 243.683 246.672 250.097 260.395 274.357 284.542 296.433 268.383 248.537 233.582 234.575 221.573 214.993 198.616 173.276 117.021 47.6954 49.4515
255.51 0.00025 48.8049 -17.7816 -86.1727 -67.3601 -51.9788 -43.0454 -4.92668 -5.31492 22.5678 21.2907 38.5623 32.6128 39.5451 9.14261 -6.09872 -5.02741 -10.024 -5.12559 -13.0546 -4.73618 25.5401 12.4203 10.2742 14.334 30.8726 38.3289 35.6151 40.5628 58.0265 73.2204 68.876 84.397 92.7846 89.1871 77.6883 61.5414 49.2254 34.4223 22.6836 20.133 12.7973 17.9488 20.7124 24.3819 39.9644 50.9792 54.7878 58.5655 56.6113 45.531 43.2069 44.8056 69.5429 91.4026 109.491 129.33 142.386 159.361 153.846 125.563 125.019 106.61 125.481 126.229 121.818 116.536 116.311 121.604 132.355 139.105 145.085 137.018 149.766 169.389 199.093 213.459 244.142 266.214 272.522 265.476 247.315 243.094 245.2 247.341 250.085 260.053 273.836 282.892 294.853 269.64 252.088 235.119 236.341 222.646 215.018 198.025 172.219 116.269 47.4282 50.8248
255.5125 0.00025 -40.6316 -30.2412 -85.1672 -65.2114 -51.1524 -44.6425 -5.09966 -6.21288 27.982 23.4728 39.838 32.9803 40.0669 10.0174 -3.83824 -2.59128 -13.4496 -8.04108 -15.0024 -5.89822 27.4263 16.8707 13.5312 17.6427 31.615 38.4208 37.0966 40.1158 57.8159 71.7697 70.2662 87.4203 94.5373 91.2192 78.8252 61.998 49.8589 34.219 21.558 18.164 11.4481 17.9647 19.844 21.9114 37.4543 49.6723 55.3754 59.2259 56.0011 45.2115 42.7041 42.7639 68.3255 89.9766 106.885 126.632 139.984 157.217 154.454 124.977 124.644 105.347 125.661 128.039 122.892 118.229 117.451 121.099 131.293 139.142 145.892 136.602 146.832 167.844 196.898 210.57 241.677 265.747 273.088 266.422 248.188 243.478 245.188 246.814 249.569 259.577 273.396 281.507 293.176 270.78 255.962 237.708 239.84 226.312 218.147 200.734 174.912 119.373 50.0764 52.5886
255.515 0.00025 -60.181 -53.9036 -85.7427 -63.6917 -49.4866 -46.1961 -6.44659 -6.85428 32.9573 26.1341 41.6283 32.8745 39.5549 10.0235 -2.9091 -0.302143 -17.0258 -11.7471 -16.9314 -6.62993 28.5771 22.0223 17.7521 21.3614 31.9127 38.3887 39.1602 39.7275 57.3906 70.0548 71.3349 89.9641 95.7158 92.9587 79.4463 62.3197 50.4495 34.0255 20.6438 16.512 10.6044 18.2905 19.0642 19.7875 34.9079 47.9576 55.414 59.6487 55.3509 44.7588 41.9892 40.9855 67.0431 88.3904 104.344 123.829 137.051 153.987 154.186 124.286 123.608 104.022 125.139 129.189 123.601 119.575 118.178 120.137 129.538 138.357 146.422 136.249 144.101 166.335 195.008 207.863 239.064 264.703 272.684 266.109 248.288 243.443 244.858 246.163 249.179 259.242 273.138 280.235 291.09 271.203 259.058 239.491 242.551 230.36 222.588 205.352 180.41 126.112 56.6934 56.6974
255.5175 0.00025 -46.6697 -57.307 -84.971 -62.8524 -47.4488 -47.1928 -8.6255 -7.47762 37.2303 28.8307 43.672 32.7173 38.0532 9.81221 -3.16341 1.33583 -20.5715 -16.3385 -19.0392 -7.01866 28.0514 26.8048 22.2945 24.6358 31.5605 37.9819 41.6105 39.2536 56.1675 67.9371 71.7296 91.7385 95.793 93.9327 79.5466 62.4394 50.8032 34.2082 20.3639 14.9572 9.8048 18.2944 18.0454 17.9536 32.3722 46.0117 55.179 59.9105 54.594 44.1345 41.2495 39.4759 65.5289 86.2222 101.534 121 134.176 149.927 152.697 122.646 121.639 102.285 123.915 129.664 123.807 120.63 119.049 119.539 127.982 137.58 147.236 136.398 142.072 165.241 193.91 205.864 236.629 263.615 272.216 265.518 248.154 243.215 244.661 245.788 248.982 258.786 273.185 279.451 289.455 271.566 261.623 240.555 243.741 232.682 225.308 208.469 184.831 131.899 62.2053 60.2829
255.52 0.00025 -39.6498 -54.4651 -83.4815 -62.5439 -45.0371 -47.1223 -11.2431 -7.94022 40.4703 31.082 45.7386 32.6218 36.5658 10.5666 -3.54458 2.88685 -22.9064 -21.2444 -20.9017 -6.45247 26.2574 31.302 27.6364 27.7137 30.9259 37.422 44.6858 38.8784 54.3325 65.758 71.631 92.646 95.1206 94.7708 79.6343 62.4129 51.0478 34.3539 20.333 13.5048 9.06579 18.2419 17.3794 16.7033 29.9818 44.2348 55.0831 60.1558 53.7212 43.4993 40.4367 38.3243 64.0015 84.081 98.7519 118.01 131.542 145.789 151.069 121.158 119.579 100.656 122.582 130.231 124.446 122.421 120.659 119.589 126.738 136.724 148.118 137.096 140.147 163.836 192.51 203.311 233.564 262.084 271.859 265.098 248.151 243.152 244.548 245.445 248.941 258.209 273.355 279.117 288.349 272.349 264.299 241.819 244.161 233.066 225.479 209.004 185.919 133.66 63.6445 61.4348
255.5225 0.00025 -42.8821 -57.1281 -81.6999 -61.9598 -42.2758 -46.0894 -14.02 -8.14697 43.1761 32.7824 47.8587 32.6863 35.347 12.0761 -3.97392 4.04029 -24.0092 -25.613 -21.9647 -4.81336 24.1714 35.6981 33.7742 30.911 30.4103 36.6898 48.0402 38.7779 51.8107 63.7282 71.3362 92.8351 94.5159 96.1358 80.3535 63.1514 52.1292 35.0231 20.8076 13.0352 9.16156 18.8033 17.5534 16.1062 27.7233 42.5434 54.9571 60.6026 52.9509 43.2622 39.7547 37.4482 62.5808 82.1471 96.5039 115.321 129.105 141.64 149.423 120.118 117.527 99.2125 121.33 131.185 125.726 124.965 122.88 119.954 125.714 135.571 148.998 138.137 138.252 161.541 190.848 200.522 230.109 260.316 271.83 264.949 248.26 243.2 244.49 245.088 249.108 257.895 273.701 278.96 287.09 272.745 266.669 243.19 244.805 233.455 225.092 208.1 184.808 133.192 63.0002 61.3514
255.525 0.00025 -45.2665 -60.8662 -78.8655 -61.7554 -39.8575 -43.6602 -16.2961 -8.11162 45.3625 34.0825 50.0114 33.0493 34.8784 14.2578 -4.31526 4.3908 -24.1636 -29.1571 -22.5089 -3.07512 21.7477 39.6668 40.9251 34.9108 30.6705 35.757 51.4939 39.4147 49.3587 62.1562 70.8205 92.3202 94.0064 97.7958 81.5192 64.4334 53.5899 36.2502 22.2035 13.7862 10.2132 19.626 18.12 16.1462 25.7696 40.9214 54.8171 61.3478 53.0043 43.806 39.9447 37.8113 61.9352 80.3307 94.6299 113.082 127.293 137.554 147.568 119.691 116.014 98.861 120.868 132.553 127.239 127.852 125.596 120.437 124.861 134.314 149.978 139.551 136.988 159.431 189.749 198.744 227.249 258.414 271.72 264.54 248.129 243.204 244.561 244.784 249.509 257.902 274.23 278.531 285.125 271.89 267.383 243.255 244.275 233.56 224.697 206.642 183.021 131.934 61.6288 60.8221
255.5275 0.00025 -42.6162 -61.8089 -75.0511 -61.9051 -38.4086 -41.2314 -17.8244 -7.91722 47.4841 35.1552 52.1078 33.5894 35.0573 16.5283 -4.5132 3.78022 -23.8661 -32.0998 -23.5212 -2.45249 18.8519 42.1035 47.6418 39.3814 31.819 34.6077 54.3053 40.1809 46.8268 60.6802 69.7643 90.6622 93.1185 98.9948 82.3355 65.5765 54.8353 37.242 23.7973 15.0691 11.5051 20.4615 18.7464 16.6086 24.2824 39.3016 54.3801 61.8594 52.9431 44.2471 40.4053 39.0444 61.8891 78.7504 92.9853 110.867 125.74 133.634 145.696 119.427 114.369 98.5968 120.755 134.125 129.146 131.023 128.838 121.569 124.6 133.348 151.472 142.096 137.467 158.449 189.883 198.61 225.945 257.536 272.545 264.671 248.284 243.667 245.171 244.944 250.471 258.266 275.247 278.426 283.589 271.299 268.486 243.37 243.744 233.681 224.95 206.324 182.441 131.044 60.2489 60.9708
255.53 0.00025 -37.7306 -60.8274 -70.5419 -61.8558 -37.2801 -38.6523 -19.3751 -7.50572 49.4176 36.0655 54.2109 34.3738 35.6005 18.1778 -4.69295 1.82364 -23.8467 -34.9297 -25.6965 -3.79922 15.2637 42.1545 52.4634 43.2924 32.8391 33.1094 55.8702 40.7998 44.0029 58.7182 67.8649 87.483 91.3879 99.5331 82.9559 66.7607 55.7716 37.4325 24.683 15.9607 12.5559 21.4483 19.546 17.1713 22.7703 37.3472 53.2608 61.8398 52.2997 44.2348 40.7838 40.6274 62.2714 77.6295 91.4481 108.708 124.431 129.755 143.573 118.777 111.922 97.4375 119.368 134.81 131.251 134.492 132.572 123.356 124.997 132.752 153.158 145.442 138.807 157.976 190.332 199.387 225.694 258.267 275.804 267.592 250.617 245.682 247.195 246.315 252.159 258.769 275.995 278.346 282.119 270.91 269.853 244.206 243.76 233.687 225.424 206.569 182.561 130.739 59.4703 61.9442
255.5325 0.00025 -32.9098 -59.3308 -66.1349 -62.0685 -36.1725 -36.0453 -20.7191 -6.93356 50.7391 37.0747 56.7501 35.5343 36.3271 18.9097 -4.89881 -1.14017 -24.4161 -37.2888 -28.1361 -6.45924 11.5941 39.707 55.6824 47.7044 34.8104 32.7128 56.9203 42.0659 41.7866 56.7854 65.7502 83.2607 89.0418 99.4783 83.6352 67.89 56.3529 37.2104 25.3645 16.4573 12.893 21.8396 19.7152 17.4193 21.0843 35.3648 51.7476 61.7643 51.8923 44.2262 41.7485 42.8055 63.453 77.316 90.5123 107.101 123.638 126.39 141.583 118.265 109.79 96.2594 117.383 134.266 132.556 136.88 135.915 125.007 125.278 131.645 153.745 148.131 139.659 156.698 190.009 199.706 224.155 257.636 278.808 271.283 253.649 248.006 249.194 247.586 253.744 259.337 276.644 278.491 281.05 271.356 271.933 246.762 245.796 235.36 227.363 207.976 183.998 132.344 60.586 63.3872
255.535 0.00025 -28.2802 -57.5901 -62.8538 -62.3871 -35.0056 -33.9887 -21.489 -6.19037 50.9938 37.7889 59.2415 37.7318 37.6597 19.2913 -4.31794 -3.81052 -24.7763 -38.0844 -29.7109 -8.9982 9.34278 36.0572 58.053 53.4961 38.271 33.863 57.6726 44.3136 41.1118 55.2088 63.7434 78.8266 86.5202 99.0931 84.2896 68.9429 56.5506 36.9315 26.3592 17.2605 13.3532 22.0525 19.2472 17.1673 19.3395 33.2258 50.026 61.4145 51.4372 44.1013 43.162 45.2506 65.0299 77.7203 90.078 105.958 123.284 123.537 139.739 117.874 108.122 95.2129 115.236 133.039 133.342 138.294 138.312 125.605 124.478 129.39 152.787 149.536 139.777 154.063 187.999 198.911 221.578 255.266 279.884 273.84 255.379 249.062 249.607 247.161 254.014 259.247 276.823 278.418 279.78 271.434 273.561 249.515 248.813 238.663 231.304 211.562 188.372 138.181 66.1002 66.7775
255.5375 0.00025 -24.0887 -55.4559 -60.8931 -61.9335 -33.18 -31.381 -21.1644 -4.81032 50.8911 38.6802 61.5614 41.6054 40.3765 19.6314 -2.69424 -5.76909 -24.8734 -36.9068 -29.6483 -10.6327 8.91387 32.0768 59.6205 60.1541 42.2283 35.8532 57.6055 47.1269 42.198 54.2534 62.2693 74.5672 84.1602 98.6806 85.3333 70.3241 56.7116 36.6752 27.8338 18.6236 14.6121 22.6308 18.4866 16.7616 17.7611 30.9484 47.9458 60.4902 50.7107 43.6295 44.3467 47.4185 66.4911 78.1125 89.5352 104.757 122.861 120.773 137.916 117.161 106.506 94.459 113.461 131.452 133.961 139.53 140.878 125.915 123.463 126.665 150.831 150.297 140.046 151.217 185.162 197.565 218.929 251.984 279.077 274.712 255.856 249.363 249.455 246.376 253.988 259.113 276.826 278.229 278.228 270.97 274.365 251.406 250.684 241.26 235.187 215.541 193.712 145.682 74.0766 72.9339
255.54 0.00025 -19.7032 -53.2003 -60.074 -60.6391 -31.2261 -28.9747 -19.6107 -3.31493 50.4103 39.7946 63.9307 46.7265 44.0895 20.3026 -0.218041 -7.33853 -25.155 -35.3162 -28.7777 -11.6788 9.34543 27.75 60.3426 67.3438 47.1592 39.3291 57.1602 49.9882 44.932 53.8215 61.3629 71.1399 81.9291 98.4262 87.1592 72.0937 57.2202 36.8762 29.3496 19.7829 15.7203 23.2952 17.4568 16.2588 16.3951 28.6624 45.7122 59.4537 49.9946 43.054 45.492 49.2552 67.9226 78.2093 88.7025 103.387 122.134 118.201 136.108 116.422 105.49 93.8233 111.418 129.28 134.099 139.778 143.124 126.561 122.87 124.21 148.358 150.539 140.77 149.096 182.802 197.087 216.972 248.484 277.354 275.007 256.093 249.585 249.448 245.927 254.054 258.979 276.778 278.151 277.124 270.883 275.058 252.816 251.489 242.38 237.544 217.726 196.623 149.801 78.0605 76.5649
255.5425 0.00025 -15.6593 -51.383 -60.424 -58.5623 -29.0116 -26.4643 -17.1516 -1.61194 49.6169 41.0402 66.2342 52.2398 48.2333 20.5791 1.80567 -8.84574 -25.8105 -34.2536 -27.5783 -12.2795 10.2962 23.3439 60.0282 73.7419 52.2511 44.0135 56.4368 52.2024 48.4143 53.2528 60.1497 67.896 79.2563 97.9174 89.3295 73.997 57.814 37.3151 30.996 20.574 16.6321 23.6947 16.2438 15.7689 15.3369 26.4794 43.4594 58.2697 49.2484 42.0321 46.1411 50.1515 69.0776 78.1367 87.7396 101.888 121.542 116.397 134.359 115.192 104.356 92.8026 109.039 126.599 134.173 139.753 145.433 127.555 122.717 122.345 145.847 150.799 142.156 147.639 180.192 196.164 214.728 244.441 274.709 275.2 256.423 250.014 249.639 245.748 254.229 258.886 276.797 278.504 276.847 271.749 276.101 254.334 252.116 242.351 237.839 217.742 196.529 149.871 77.3042 76.7747
255.545 0.00025 -11.9202 -50.7054 -61.2362 -56.3967 -26.1967 -23.5114 -13.2315 1.06008 48.1454 42.3109 68.2361 58.0225 52.6615 20.8113 3.21656 -10.3864 -26.66 -33.897 -26.1305 -12.6866 10.8802 19.1235 58.4351 78.21 56.8367 49.3325 55.6336 53.5932 51.9863 52.0001 58.0323 64.5082 75.7802 96.7873 91.5034 75.8143 58.5677 37.9388 32.7381 21.8038 18.584 24.5159 15.4831 15.7815 15.2117 24.7564 41.259 56.805 48.1304 40.6247 46.3029 50.4467 70.3729 78.3822 86.9652 100.718 121.196 115.498 132.969 113.927 103.35 91.6197 106.823 124.154 134.687 140.043 148.376 129.442 123.515 121.493 143.394 151.099 143.85 146.371 177.315 194.774 212.408 240.13 271.541 275.431 256.881 250.67 250.067 245.939 254.651 259.222 277.061 279.22 276.791 272.625 277.061 256.032 253.158 242.666 238.079 217.061 194.951 148.501 75.176 75.6615
255.5475 0.00025 -8.34113 -50.6938 -62.0493 -54.5602 -22.9958 -20.3597 -8.75718 4.0088 45.9751 43.1643 69.7972 63.4119 57.5083 21.8477 4.44884 -11.789 -27.8225 -34.3658 -24.5644 -13.0657 10.422 15.3145 55.9865 80.6838 61.061 54.8444 55.0743 54.1322 55.1303 50.7323 55.6755 61.395 72.0665 95.494 93.8568 77.9163 59.5992 38.8089 34.5205 23.1638 21.0431 25.7362 15.1335 15.9009 15.3861 23.072 39.137 55.0716 46.8358 39.4945 46.6337 50.6772 71.7212 78.8063 86.3273 99.7793 120.755 114.922 131.685 112.891 102.981 91.0413 104.746 121.606 135.229 140.225 151.927 132.052 125.086 121.452 140.73 150.779 145.67 145.71 174.831 193.744 210.962 236.298 267.825 275.055 257.017 251.172 250.486 246.127 255.085 259.85 277.366 279.565 275.945 272.398 276.692 256.544 253.037 242.238 238.041 216.023 192.734 147.065 73.3307 74.712
255.55 0.00025 -5.34228 -51.7218 -62.4389 -53.0486 -19.6288 -16.6888 -3.6928 7.7708 43.4621 44.1963 71.4598 69.0018 63.0804 24.3687 6.1586 -12.6756 -28.3184 -34.4916 -22.2441 -12.6728 9.9029 13.001 53.8864 81.6951 65.1356 60.1888 54.9291 54.0289 57.4613 49.6144 53.394 59.0733 68.4254 94.0738 96.233 80.1782 60.715 40.0129 36.2887 24.1484 23.2406 26.5436 14.5926 15.8397 15.6656 21.5899 37.5216 53.7366 46.0996 39.2862 47.7437 51.3088 73.0914 79.1694 85.6577 98.9253 120.009 114.567 130.531 112.275 103.383 91.4937 103.54 119.994 136.477 140.581 156.049 135.372 127.34 122.256 138.718 150.609 148.328 146.503 173.365 193.657 211.032 234.019 264.577 274.709 257.559 252.084 251.172 246.417 255.541 260.691 278.016 280.238 275.495 272.368 276.405 256.768 252.831 241.724 238.058 215.733 191.623 146.555 72.1252 74.9429
255.5525 0.00025 -3.48512 -53.4951 -62.5389 -52.2256 -16.0405 -12.0372 1.81169 12.3352 40.5998 45.6767 73.016 74.8565 68.8634 28.2836 8.17179 -13.4875 -28.8456 -34.8925 -20.4643 -12.0449 9.41619 12.5355 52.2092 81.3328 69.2418 65.3758 55.6766 53.59 58.675 48.4469 51.1242 57.3694 64.5854 91.9409 98.1098 82.0897 61.4287 41.0474 37.8936 25.2585 25.7279 27.4713 14.3138 15.7878 15.8679 20.2268 36.1375 52.6895 45.3953 39.6493 49.6235 52.2736 75.2201 80.8916 85.9517 98.423 119.371 114.742 129.96 111.955 104.05 92.1495 102.672 119.087 138.406 141.567 160.12 139.48 130.573 124.295 137.569 150.938 151.877 148.758 172.797 194.263 212.144 233.37 263.152 276.712 260.279 254.6 253.261 248.05 256.942 262.1 278.74 281.3 275.33 272.84 276.705 257.811 253.635 241.732 238.355 216.157 191.646 147.16 72.0013 75.8057
255.555 0.00025 -2.37468 -55.9733 -63.0279 -51.3938 -11.9031 -6.66792 7.61777 17.4478 37.787 47.4776 73.8207 80.7258 74.5528 33.5373 9.82345 -15.2808 -29.7592 -35.4809 -20.3052 -11.849 8.33237 12.7291 50.1416 79.1276 73.0292 70.3556 57.2724 53.2647 58.9679 47.9648 49.3674 56.4211 61.6563 89.6157 99.4816 83.8935 62.2322 42.3078 39.6228 26.6764 28.6256 28.6877 14.6029 16.0626 15.978 19.0898 35.0191 51.7738 44.389 40.0393 51.3791 53.0473 77.1604 83.6139 87.3948 98.7407 119.291 115.108 129.212 111.47 104.464 92.4017 100.86 116.86 138.951 141.986 163.402 143.579 134.281 126.943 136.362 150.763 154.962 151.551 172.358 194.858 213.103 232.237 260.852 278.43 263.95 257.953 255.801 249.964 258.326 263.625 279.196 282.416 275.476 273.904 277.744 260.124 256.145 243.722 240.354 218.184 193.49 150.157 74.2369 77.4066
255.5575 0.00025 -2.70867 -59.2033 -63.6551 -50.9074 -7.66293 -0.555594 13.6434 22.9552 35.0229 49.8838 73.5157 86.0085 79.4324 39.5283 11.1304 -18.2546 -30.8997 -35.8489 -21.6382 -12.592 6.71467 13.3056 47.6966 75.0195 76.0148 74.9602 59.788 53.5849 58.0684 47.7308 47.6268 55.567 59.4693 86.9542 100.226 85.854 63.5517 43.7624 40.9087 27.6163 31.1229 29.2812 14.9922 16.3948 15.9069 18.2233 34.109 51.0361 43.6588 40.6452 53.1958 53.6907 78.3977 86.3036 88.9923 99.1645 119.12 115.423 127.851 110.509 104.634 92.3594 98.1558 113.419 137.782 140.573 164.338 145.977 136.942 128.98 134.411 149.117 156.535 153.57 171.292 194.753 213.551 230.868 257.549 278.254 266.07 260.126 257.007 250.297 257.991 263.962 278.776 282.803 275.063 274.165 278.017 261.996 258.509 246.422 243.543 222.042 197.682 156.499 80.5208 82.6008
255.56 0.00025 -4.38059 -61.6181 -64.6282 -50.5879 -3.58302 6.09819 20.0848 28.8891 32.7606 53.2058 72.5025 90.7106 83.2771 45.7674 12.2874 -21.8558 -32.0835 -36.2356 -23.6469 -13.5186 6.06355 15.3824 45.9805 70.4344 79.2112 79.9102 63.3875 55.6899 56.8696 47.6253 45.7717 54.5366 57.4908 83.3393 99.8513 87.3201 64.7914 45.3936 42.044 28.5912 33.2653 29.1613 15.1626 16.6173 15.5878 17.4414 33.2512 50.036 42.7844 41.3178 55.438 54.6173 79.1932 88.852 90.6948 99.6397 119.152 116.35 126.962 110.519 105.427 92.8391 95.7429 109.992 135.877 138.596 164.196 147.174 138.989 130.678 132.37 146.571 156.99 155.006 169.437 193.185 213.205 229.237 253.514 276.732 267.131 261.51 257.648 250.22 257.137 263.884 278.033 282.83 274.308 273.892 277.702 263.104 259.55 247.957 245.756 225.364 201.774 162.972 87.6907 89.0641
255.5625 0.00025 -6.60521 -63.7111 -66.1879 -50.6679 -0.1921 13.1103 26.3915 34.6242 30.8997 57.5227 71.6578 94.7921 86.6751 52.2237 13.6309 -25.3522 -32.0124 -35.9017 -25.927 -14.3669 6.20079 18.4756 44.9887 65.914 81.8678 84.5301 67.4732 59.3544 56.0117 48.0513 44.7815 54.16 56.457 79.6023 98.2956 87.9479 65.6251 47.0932 42.9385 29.6233 35.1158 28.921 15.4338 16.6573 14.9239 16.5452 32.2803 48.6253 41.5855 41.6297 57.3691 55.32 79.2723 91.0331 93.1146 100.411 119.749 117.856 126.491 110.991 106.542 94.2517 94.2705 107.113 133.513 136.356 163.739 148.87 141.454 132.677 130.572 143.445 156.482 156.529 168.121 191.613 213.069 227.587 249.056 274.074 267.408 262.758 258.37 250.354 256.293 263.566 276.992 282.582 273.637 273.823 277.682 263.956 259.787 248.239 246.571 227.246 203.869 166.04 90.3969 91.3607
255.565 0.00025 -8.37378 -65.8351 -68.8411 -51.3598 1.60818 19.9906 31.8153 39.3725 29.5191 61.8679 71.0655 98.1025 90.403 58.2905 15.5186 -28.0806 -30.3829 -35.0193 -28.0048 -15.1277 6.87245 21.8887 45.0387 61.806 83.6407 88.499 71.3703 63.5389 55.3785 48.6897 44.6723 54.6055 57.4012 77.0274 97.0246 88.8109 66.9329 48.7654 43.3253 30.4547 36.4944 28.9211 16.0833 16.4406 14.0377 15.7783 31.3697 47.119 40.506 41.7521 58.5558 55.3358 78.0934 92.1811 95.7618 101.664 121.078 119.663 126.085 111.814 107.914 95.6879 92.7026 104.467 131.082 134.296 162.081 150.225 143.851 135.052 129.304 140.244 155.541 158.399 167.227 189.868 212.832 225.937 244.279 270.472 266.977 263.908 259.158 250.651 255.674 263.168 276.009 282.494 273.503 274.531 278.318 265.191 260.151 248.239 246.199 227.311 203.566 165.862 89.0532 90.6622
255.5675 0.00025 -9.6434 -68.1805 -71.5765 -52.0865 2.53832 26.9005 36.7097 43.4123 29.2422 66.1116 70.5862 100.315 94.806 64.1122 18.7896 -29.4065 -27.696 -34.0259 -29.5121 -15.2552 8.48071 25.277 45.8317 58.2782 84.7925 92.2078 75.0807 67.9993 55.2593 48.9312 44.9704 55.2815 59.3259 75.1211 95.8011 89.7965 68.8696 50.869 43.8445 31.442 37.5451 29.0847 17.2717 16.3327 13.0327 14.9298 30.3374 45.4344 39.262 41.3782 59.0712 55.0504 76.2052 92.2913 98.1138 102.869 122.458 121.387 125.358 112.274 109.107 97.2986 91.8942 102.697 129.297 132.954 160.028 151.608 146.462 138.251 129.06 137.37 154.284 160.221 166.804 187.863 212.185 223.986 239.295 266.394 265.754 264.623 259.943 251.162 255.5 263.26 275.581 282.825 273.821 275.465 279.301 266.917 261.213 249.056 246.438 227.361 202.108 164.305 86.8774 89.1023
255.57 0.00025 -10.2639 -70.1047 -74.5428 -53.1922 2.76293 33.4006 41.418 46.9157 29.534 69.5254 70.1424 101.016 99.3882 69.1607 23.6155 -28.9241 -24.0302 -33.2029 -30.6548 -14.5779 10.597 28.2055 47.1168 55.5622 85.5328 95.1149 78.0076 72.2192 55.5986 48.3605 45.5367 56.1225 61.6956 73.6677 94.4138 90.4419 71.1408 53.3566 44.9367 33.1565 38.589 29.2132 18.7968 16.3795 11.9906 13.825 29.0413 43.0822 37.7687 40.5625 59.1416 54.5561 74.1004 91.6461 100.536 104.17 123.623 123.077 124.705 113.029 110.116 98.9268 91.3129 101.094 127.393 132.184 157.786 153.272 149.777 142.537 129.854 134.912 153.107 162.224 167.447 186.636 212.413 222.942 234.829 262.054 264.062 264.859 260.62 251.768 255.471 263.497 275.273 282.631 273.462 275.344 279.233 267.755 261.341 249.141 246.092 227.348 200.567 162.909 85.5043 88.1196
255.5725 0.00025 -10.5985 -71.1596 -77.4915 -54.5976 2.45321 38.5785 45.8968 49.6867 30.8778 72.6221 71.1541 100.627 103.845 72.9033 29.2822 -26.2098 -20.0315 -32.5572 -31.8971 -13.8166 12.5209 30.276 48.4599 53.3065 85.194 96.8288 80.0558 75.3668 56.3236 47.1092 45.858 56.701 63.834 72.1966 92.6225 90.3562 73.5742 56.086 46.2917 35.1769 39.5845 29.9072 20.5921 16.5953 11.4876 13.3135 27.866 40.5576 36.5772 39.9804 59.1264 54.1677 71.8333 90.0218 102.438 105.291 124.662 124.754 124.391 114.234 111.243 100.85 91.1469 99.8665 125.437 131.378 155.548 155.378 153.953 147.623 132.204 133.269 152.365 164.685 169.341 186.4 213.645 223.395 231.737 258.524 262.878 265.676 261.743 252.664 255.566 263.805 275.157 282.489 273.436 275.313 279.141 268.17 261.211 248.967 245.574 227.487 199.997 162.554 84.9856 88.4793
255.575 0.00025 -10.5457 -71.4434 -80.6317 -56.2838 1.22848 41.9785 50.5654 51.7486 33.4328 74.9021 73.3099 100.071 108.253 76.0786 34.9559 -21.6028 -16.1556 -31.6106 -32.8078 -12.7156 14.2982 31.8744 49.9724 51.6568 84.0472 97.3052 81.0418 77.1509 57.4727 45.5883 46.0773 56.7431 65.1974 70.7949 90.332 89.4989 75.8101 58.4058 47.606 37.0795 40.3859 31.2389 22.5931 16.8919 11.3278 13.2301 27.0027 38.3212 35.6941 39.6403 59.0756 54.2461 69.6751 87.845 103.8 106.486 126.153 126.879 124.654 115.927 112.819 103.403 92.0233 99.8806 124.579 131.646 153.666 157.608 158.477 153.285 135.985 132.905 152.623 167.732 172.341 187.04 215.709 225.251 230.833 257.683 263.818 268.19 264.307 254.859 256.726 264.867 275.502 282.909 273.994 275.957 279.851 269.451 262.25 249.606 245.608 227.939 200.598 163.458 85.6375 89.2817
255.5775 0.00025 -11.1067 -71.6286 -84.2656 -58.3667 -0.752424 43.9014 55.4738 53.3749 36.7574 75.9124 75.9037 98.9231 111.755 79.03 40.0234 -15.1173 -12.3696 -30.1247 -32.7593 -11.1923 16.3355 33.3537 51.468 51.5181 83.2554 97.1921 81.4117 78.0681 58.9673 43.898 46.3454 56.9483 66.3603 69.732 88.1539 88.3022 78.0175 60.7638 49.1148 38.9494 40.8986 32.5147 24.1919 16.7366 11.0222 13.1107 26.477 36.4963 35.4761 39.9355 59.8648 55.7057 68.97 86.4068 105.424 108.574 128.099 128.785 124.795 117.575 114.599 106 93.3121 100.16 123.945 132.717 152.37 159.629 163.063 159.593 140.619 133.099 152.729 170.771 175.766 187.869 217.331 226.726 229.496 256.324 264.814 270.945 267.365 257.517 258.036 265.995 275.93 283.359 274.902 276.862 281.019 271.447 264.555 251.858 247.249 229.716 203.015 166.746 88.7905 91.5265
255.58 0.00025 -12.771 -71.9661 -88.2804 -60.3476 -2.96091 44.3508 59.9816 54.0394 39.9078 75.8566 78.4414 97.3521 113.554 81.7671 44.5905 -6.95218 -9.05488 -28.4067 -32.0379 -9.48945 18.3865 34.4843 52.6946 52.7958 82.9068 96.9038 81.813 78.5974 61.2594 43.2063 47.3949 58.145 67.5338 69.1674 86.4397 87.4137 80.4383 63.4877 50.8269 40.6948 41.0608 33.2617 25.4977 16.4874 10.8128 12.9682 25.9378 35.0887 36.0395 40.7193 60.9005 57.9008 69.0443 85.3101 107.729 111.902 130.678 130.632 124.616 118.871 115.733 107.67 93.7217 99.0012 121.328 131.742 149.534 159.419 165.612 164.372 144.695 132.817 151.54 172.303 178.858 188.794 218.789 227.959 227.695 253.451 263.644 271.552 268.438 258.508 257.629 265.554 275.152 282.406 274.871 276.682 281.028 272.596 265.974 253.627 248.991 232.206 206.842 172.423 95.0749 97.8445
255.5825 0.00025 -15.8429 -72.3473 -91.4482 -62.0273 -5.04828 43.1945 63.7643 53.7143 42.1098 75.037 80.339 95.9149 113.956 84.5145 48.9568 2.8191 -6.0338 -26.4115 -31.0215 -8.0822 19.9377 35.2626 53.0305 54.5161 82.5885 96.1964 82.5618 78.8001 64.3029 43.5498 48.7369 59.9923 68.608 69.0768 84.9698 86.6237 82.3741 66.1459 52.5884 42.3035 41.2594 34.0263 26.5395 16.2224 10.9337 13.1237 25.1563 33.7966 36.8126 41.6182 61.6228 60.1018 68.827 83.4872 108.95 114.762 133.093 132.14 124.103 119.25 115.948 108.076 93.1643 96.4722 117.426 129.043 145.33 156.918 166.439 167.473 148.311 132.164 149.629 172.411 180.819 188.731 219.09 228.514 225.598 249.995 261.43 270.957 268.649 259.008 256.672 264.574 274.039 280.796 274.322 275.981 280.449 273.151 266.361 254.262 249.748 233.727 209.995 177.175 100.897 103.526
255.585 0.00025 -19.2041 -72.6678 -93.322 -62.4782 -7.35833 41.4338 66.4605 52.6549 43.7074 74.2913 81.8899 94.566 113.021 87.0465 52.6922 13.1243 -3.32933 -23.9257 -29.1667 -6.82313 20.8382 35.493 52.656 56.7224 82.649 95.4978 84.0822 78.7801 67.203 44.2644 49.7721 61.7957 69.031 68.3893 82.953 85.2013 83.3246 68.3763 54.2111 43.5012 41.6555 34.7871 27.2557 16.0267 11.3147 13.5468 24.1199 32.2411 37.2746 42.2046 61.6149 62.3366 68.7825 81.5941 108.967 116.926 135.384 134.216 124.724 120.426 117.053 109.028 93.9347 94.5787 113.899 126.277 141.603 154.567 167.119 169.739 151.693 131.51 146.963 171.395 182.046 188.123 218.67 228.458 223.553 246.577 258.87 270.114 268.677 259.608 255.823 263.494 272.768 278.872 273.681 275.341 280.142 273.631 266.394 253.764 249.541 234.117 211.558 178.707 102.363 104.483
255.5875 0.00025 -21.8232 -72.7129 -93.3525 -62.17 -9.94843 39.2879 67.8059 51.9104 45.0391 73.5146 83.5271 93.0503 110.316 88.6556 55.0801 23.2664 -0.061895 -19.9192 -25.6555 -5.118 21.9933 35.944 52.3063 59.6161 83.1718 94.7561 86.511 79.7489 70.6574 46.5198 51.3124 63.8124 69.3378 67.4343 80.6848 83.5505 83.2905 70.0143 55.5583 44.1849 42.2406 35.6224 28.0942 16.1614 11.9415 14.2575 23.04 30.7425 37.428 42.4817 60.9467 64.1986 69.0107 80.1543 108.953 119.387 137.894 136.7 126.241 122.351 118.891 110.682 95.7602 93.6456 111.096 123.936 138.074 151.788 167.619 171.466 155.031 131.16 144.123 169.728 182.71 187.442 218.107 228.532 221.83 243.457 256.406 269.388 268.821 260.398 255.309 262.432 271.402 276.897 273.246 275.223 280.417 274.594 266.916 253.248 248.887 233.203 211.102 177.739 100.657 102.806
255.59 0.00025 -24.1445 -72.3924 -92.0407 -61.4066 -12.887 37.144 67.8897 51.6225 45.6869 72.0283 84.8523 91.4523 106.581 90.1458 56.9634 33.5654 3.47044 -14.9411 -21.0635 -3.25723 22.9727 36.1872 51.9449 62.601 83.8731 93.6888 89.0869 81.2331 74.6143 50.3075 53.2864 66.3203 70.4358 67.4269 79.1327 82.2611 82.7819 71.2652 56.8931 44.7975 43.3174 36.4786 29.0297 16.4864 12.3716 14.8804 22.041 29.5244 37.6349 42.7125 59.7697 65.5193 69.0345 78.2623 108.394 121.696 140.26 139.095 127.875 124.27 120.589 112.117 97.8102 93.291 109.174 122.244 135.046 148.802 167.852 172.995 158.648 131.382 141.452 167.895 182.985 186.625 216.895 227.838 219.384 239.828 253.047 267.513 268.221 260.927 254.996 261.865 270.627 275.485 273.275 275.549 281.227 276.348 268.564 253.935 249.39 233.116 210.55 175.8 98.2905 100.699