255.5025 0.00025 4.84117 5.89037 6.87604 7.25299 7.54082 7.74023 7.93424 8.10711 8.24076 8.35174 8.46863 8.54409 8.61898 8.70756 8.79229 8.85033 8.90084 8.96174 9.02025 9.0845 9.15374 9.21621 9.2774 9.33768 9.38249 9.4154 9.45031 9.49293 9.53592 9.57596 9.60274 9.63982 9.68533 9.72462 9.77627 9.81962 9.86663 9.91225 9.94898 9.99293 10.0265 10.0504 10.0839 10.1091 10.1348 10.1615 10.1808 10.2072 10.2355 10.2608 10.2892 10.3269 10.3703 10.4121 10.4512 10.4838 10.5162 10.5639 10.6111 10.6542 10.6987 10.7341 10.7725 10.8107 10.8493 10.8886 10.922 10.9584 10.9987 11.0348 11.0724 11.1101 11.1519 11.1884 11.2188 11.2502 11.2831 11.312 11.3395 11.3658 11.3903 11.4158 11.441 11.46 11.474 11.4913 11.5071 11.5245 11.5457 11.5634 11.5845 11.6027 11.6141 11.6286 11.6418 11.6508 11.6598 11.6674 11.6816 11.7017
255.505 0.00025 4.84142 5.89111 6.87633 7.2524 7.54012 7.73863 7.93272 8.10693 8.24132 8.35221 8.46952 8.54541 8.62025 8.7077 8.79181 8.85061 8.90091 8.9615 9.02015 9.08398 9.15329 9.21628 9.27751 9.33772 9.38324 9.41658 9.45159 9.49472 9.53808 9.57739 9.60329 9.64006 9.68581 9.72624 9.77788 9.82035 9.86667 9.91179 9.94867 9.99292 10.0262 10.0492 10.0825 10.1085 10.1346 10.1607 10.1799 10.2065 10.2346 10.2598 10.2887 10.3264 10.3696 10.4114 10.4503 10.4838 10.5169 10.5645 10.6112 10.6542 10.6986 10.7338 10.7725 10.8105 10.8487 10.8882 10.9221 10.9588 10.9991 11.0352 11.0727 11.1105 11.1523 11.1886 11.2188 11.2499 11.2828 11.312 11.3394 11.3657 11.3902 11.4154 11.4407 11.4599 11.474 11.4913 11.507 11.5245 11.5457 11.5634 11.5843 11.6025 11.614 11.6286 11.6417 11.6506 11.6596 11.6674 11.6816 11.7019
255.5075 0.00025 4.84174 5.89192 6.87669 7.25185 7.53948 7.73705 7.93124 8.10676 8.24179 8.35255 8.47028 8.5468 8.62165 8.7079 8.79116 8.85078 8.90105 8.96135 9.02012 9.08357 9.15288 9.21634 9.27757 9.33768 9.38392 9.41772 9.45285 9.49656 9.54027 9.57876 9.6038 9.64033 9.68626 9.72782 9.77951 9.82106 9.86667 9.91139 9.9485 9.9929 10.0258 10.048 10.0811 10.1078 10.1342 10.1598 10.179 10.2057 10.2337 10.2587 10.2882 10.3261 10.369 10.4105 10.4495 10.4836 10.5177 10.5652 10.6112 10.6541 10.6985 10.7335 10.7724 10.8104 10.8481 10.8878 10.9222 10.9592 10.9995 11.0356 11.0731 11.1108 11.1526 11.1888 11.2188 11.2495 11.2826 11.312 11.3393 11.3657 11.39 11.4151 11.4404 11.4599 11.4741 11.4912 11.507 11.5245 11.5457 11.5633 11.5842 11.6024 11.614 11.6285 11.6416 11.6505 11.6595 11.6673 11.6817 11.702
255.51 0.00025 4.84208 5.89275 6.87708 7.25133 7.53889 7.73547 7.9298 8.10657 8.24217 8.35279 8.47093 8.54824 8.62316 8.70815 8.79039 8.8508 8.90127 8.9613 9.02017 9.08324 9.15253 9.2164 9.27761 9.33758 9.38451 9.41879 9.45409 9.49847 9.54248 9.58004 9.60428 9.64064 9.68668 9.72934 9.78114 9.82177 9.86666 9.91106 9.94845 9.99287 10.0253 10.0469 10.0797 10.1071 10.1338 10.1589 10.1781 10.2051 10.2328 10.2576 10.2877 10.3257 10.3684 10.4097 10.4485 10.4834 10.5184 10.5659 10.6112 10.654 10.6983 10.7331 10.7724 10.8103 10.8475 10.8873 10.9223 10.9596 10.9999 11.0361 11.0735 11.1112 11.153 11.189 11.2188 11.2492 11.2823 11.3119 11.3392 11.3656 11.3899 11.4147 11.44 11.4598 11.4741 11.4912 11.5069 11.5245 11.5458 11.5633 11.584 11.6023 11.614 11.6285 11.6415 11.6504 11.6594 11.6673 11.6817 11.7022
255.5125 0.00025 4.8424 5.89361 6.87751 7.25086 7.53837 7.7339 7.9284 8.10634 8.24247 8.35295 8.47147 8.54973 8.62474 8.70844 8.78952 8.8507 8.90153 8.96135 9.02031 9.08298 9.15222 9.21647 9.27764 9.33745 9.38501 9.41976 9.45531 9.50042 9.5447 9.58124 9.60475 9.64101 9.68707 9.73079 9.78274 9.82249 9.86665 9.9108 9.94852 9.99283 10.0248 10.0457 10.0783 10.1063 10.1334 10.158 10.1773 10.2045 10.232 10.2566 10.2871 10.3253 10.3678 10.4089 10.4475 10.4832 10.5193 10.5666 10.6113 10.6539 10.6981 10.7327 10.7723 10.8102 10.847 10.8869 10.9223 10.9599 11.0003 11.0365 11.074 11.1116 11.1533 11.1891 11.2188 11.249 11.2821 11.3118 11.3391 11.3655 11.3898 11.4143 11.4396 11.4597 11.4741 11.4912 11.5069 11.5245 11.5458 11.5633 11.5838 11.6022 11.614 11.6285 11.6415 11.6502 11.6592 11.6673 11.6817 11.7023
255.515 0.00025 4.8427 5.89446 6.87801 7.25046 7.53792 7.73234 7.92701 8.10604 8.24271 8.35306 8.47193 8.55125 8.62639 8.70878 8.78859 8.85047 8.90183 8.96149 9.02052 9.08276 9.15193 9.21655 9.2777 9.33733 9.38542 9.42064 9.4565 9.50242 9.54693 9.58234 9.60521 9.64147 9.68746 9.73214 9.7843 9.82323 9.86665 9.9106 9.94869 9.99279 10.0242 10.0445 10.077 10.1055 10.1328 10.157 10.1765 10.204 10.2311 10.2555 10.2866 10.325 10.3672 10.4081 10.4465 10.4829 10.5201 10.5673 10.6113 10.6538 10.6979 10.7323 10.7723 10.8102 10.8464 10.8864 10.9223 10.9602 11.0007 11.037 11.0744 11.1121 11.1536 11.1892 11.2188 11.2487 11.2819 11.3118 11.339 11.3655 11.3897 11.414 11.4392 11.4596 11.4741 11.4911 11.5069 11.5245 11.5459 11.5633 11.5836 11.6021 11.614 11.6285 11.6414 11.6501 11.6591 11.6672 11.6818 11.7025
255.5175 0.00025 4.84299 5.89532 6.87856 7.25013 7.53752 7.7308 7.92563 8.10563 8.24288 8.35314 8.47231 8.55278 8.62807 8.70916 8.78763 8.85011 8.90215 8.96173 9.02083 9.08257 9.15167 9.21665 9.27781 9.33724 9.38573 9.42141 9.45768 9.50447 9.54916 9.58335 9.60567 9.64202 9.68785 9.73339 9.7858 9.82398 9.86669 9.91048 9.94896 9.99274 10.0236 10.0434 10.0756 10.1046 10.1322 10.156 10.1758 10.2036 10.2304 10.2544 10.286 10.3246 10.3667 10.4073 10.4455 10.4826 10.5208 10.568 10.6114 10.6537 10.6976 10.7319 10.7722 10.8101 10.8459 10.886 10.9223 10.9605 11.0011 11.0375 11.0749 11.1125 11.1539 11.1892 11.2188 11.2485 11.2818 11.3117 11.3389 11.3654 11.3896 11.4136 11.4389 11.4594 11.4741 11.4911 11.5068 11.5244 11.5459 11.5633 11.5834 11.6019 11.614 11.6285 11.6413 11.6499 11.6589 11.6672 11.6818 11.7026
255.52 0.00025 4.8433 5.89615 6.87919 7.24987 7.53719 7.72931 7.92425 8.10509 8.24301 8.35322 8.47265 8.55431 8.62977 8.70956 8.78667 8.84967 8.90245 8.96205 9.02123 9.08241 9.15141 9.21677 9.27798 9.3372 9.38594 9.42208 9.45885 9.50655 9.55136 9.58427 9.60615 9.64267 9.68824 9.73455 9.78721 9.82474 9.86677 9.91042 9.9493 9.99268 10.023 10.0422 10.0742 10.1037 10.1315 10.155 10.1751 10.2032 10.2296 10.2534 10.2853 10.3242 10.3662 10.4066 10.4444 10.4823 10.5216 10.5687 10.6115 10.6535 10.6974 10.7315 10.7721 10.8101 10.8454 10.8855 10.9223 10.9607 11.0015 11.038 11.0754 11.1129 11.1542 11.1893 11.2188 11.2483 11.2816 11.3116 11.3388 11.3654 11.3895 11.4133 11.4385 11.4593 11.4741 11.4911 11.5068 11.5244 11.546 11.5633 11.5833 11.6018 11.614 11.6285 11.6412 11.6498 11.6588 11.6671 11.6818 11.7028
255.5225 0.00025 4.84361 5.89697 6.87988 7.24969 7.53691 7.72785 7.92288 8.10441 8.24306 8.35334 8.47296 8.55582 8.63147 8.70997 8.78572 8.84915 8.90273 8.96244 9.02174 9.08228 9.15114 9.2169 9.27822 9.33722 9.38605 9.42264 9.46002 9.50863 9.55352 9.58511 9.60665 9.6434 9.68865 9.73561 9.78852 9.82551 9.8669 9.91043 9.94969 9.99261 10.0223 10.0411 10.0728 10.1027 10.1308 10.1539 10.1745 10.2028 10.2289 10.2523 10.2846 10.3238 10.3657 10.4059 10.4434 10.4819 10.5223 10.5694 10.6117 10.6534 10.6971 10.731 10.772 10.8101 10.845 10.8851 10.9222 10.9609 11.0018 11.0385 11.0759 11.1134 11.1545 11.1893 11.2187 11.2481 11.2815 11.3116 11.3386 11.3653 11.3894 11.4129 11.4381 11.4591 11.4741 11.4911 11.5068 11.5244 11.546 11.5633 11.5831 11.6016 11.614 11.6285 11.6411 11.6497 11.6586 11.6671 11.6818 11.7029
255.525 0.00025 4.8439 5.89777 6.88066 7.24959 7.53668 7.72646 7.9215 8.10357 8.24305 8.35351 8.47327 8.55728 8.63314 8.71038 8.78482 8.84859 8.90296 8.96288 9.02236 9.08219 9.15086 9.21703 9.27853 9.33733 9.38605 9.42312 9.4612 9.5107 9.55561 9.58588 9.6072 9.64423 9.68909 9.73657 9.7897 9.82628 9.86711 9.9105 9.95013 9.99252 10.0216 10.04 10.0714 10.1017 10.1301 10.1529 10.1738 10.2024 10.2283 10.2514 10.2839 10.3233 10.3652 10.4052 10.4423 10.4815 10.523 10.5701 10.6118 10.6533 10.6967 10.7306 10.7718 10.8101 10.8446 10.8847 10.9222 10.9611 11.0022 11.0391 11.0764 11.1139 11.1547 11.1893 11.2186 11.248 11.2815 11.3115 11.3385 11.3652 11.3893 11.4126 11.4377 11.4589 11.4741 11.4911 11.5068 11.5244 11.546 11.5633 11.5829 11.6015 11.614 11.6285 11.6411 11.6495 11.6584 11.667 11.6818 11.703
255.5275 0.00025 4.84417 5.89854 6.8815 7.24954 7.5365 7.72514 7.92012 8.10257 8.24294 8.35375 8.4736 8.55869 8.63478 8.7108 8.78396 8.848 8.90314 8.96334 9.02308 9.08215 9.15056 9.21716 9.27892 9.33751 9.38597 9.42354 9.46242 9.51273 9.55761 9.58659 9.60781 9.64513 9.68956 9.73746 9.79075 9.82705 9.86738 9.91062 9.95059 9.99241 10.021 10.039 10.07 10.1007 10.1293 10.1519 10.1732 10.2021 10.2277 10.2505 10.2832 10.3228 10.3647 10.4046 10.4413 10.4811 10.5236 10.5707 10.6121 10.6532 10.6964 10.7301 10.7717 10.8101 10.8442 10.8843 10.9221 10.9612 11.0025 11.0396 11.077 11.1144 11.155 11.1892 11.2185 11.2478 11.2814 11.3115 11.3384 11.3652 11.3893 11.4123 11.4373 11.4587 11.474 11.4911 11.5068 11.5244 11.5461 11.5633 11.5827 11.6013 11.614 11.6285 11.641 11.6494 11.6583 11.667 11.6818 11.7032
255.53 0.00025 4.84439 5.89929 6.88242 7.24953 7.53636 7.72392 7.91874 8.1014 8.24274 8.35408 8.47398 8.56004 8.63638 8.71121 8.78317 8.84741 8.90327 8.96381 9.02389 9.08219 9.15023 9.21726 9.27937 9.33776 9.38581 9.42393 9.46368 9.51469 9.55949 9.58726 9.60848 9.6461 9.69006 9.73827 9.79166 9.8278 9.86774 9.91081 9.95106 9.99227 10.0203 10.0381 10.0685 10.0995 10.1285 10.151 10.1726 10.2018 10.2271 10.2496 10.2824 10.3221 10.3641 10.404 10.4404 10.4806 10.5242 10.5713 10.6123 10.6532 10.696 10.7297 10.7715 10.8101 10.8439 10.884 10.922 10.9612 11.0028 11.0401 11.0776 11.115 11.1552 11.1892 11.2184 11.2476 11.2814 11.3115 11.3383 11.3651 11.3892 11.412 11.4368 11.4585 11.474 11.4911 11.5068 11.5244 11.5461 11.5633 11.5826 11.6011 11.614 11.6285 11.641 11.6493 11.6581 11.6669 11.6818 11.7033
255.5325 0.00025 4.84459 5.90003 6.8834 7.24954 7.53626 7.72282 7.91735 8.1001 8.24242 8.35449 8.47443 8.5613 8.63791 8.71161 8.78244 8.84682 8.90336 8.96428 9.02479 9.08232 9.1499 9.21733 9.27987 9.33805 9.38559 9.42431 9.465 9.51656 9.56122 9.58791 9.60923 9.64713 9.69059 9.73903 9.79244 9.82855 9.86818 9.91103 9.95151 9.9921 10.0197 10.0372 10.0671 10.0983 10.1276 10.15 10.172 10.2014 10.2266 10.2488 10.2816 10.3215 10.3636 10.4034 10.4395 10.4801 10.5247 10.5718 10.6126 10.6532 10.6956 10.7292 10.7713 10.8101 10.8437 10.8837 10.9219 10.9612 11.003 11.0407 11.0782 11.1155 11.1554 11.1891 11.2182 11.2475 11.2814 11.3115 11.3382 11.365 11.3892 11.4117 11.4364 11.4583 11.4739 11.4911 11.5068 11.5244 11.5461 11.5633 11.5824 11.601 11.614 11.6286 11.6409 11.6491 11.658 11.6669 11.6818 11.7034
255.535 0.00025 4.84475 5.90075 6.88443 7.24954 7.5362 7.72185 7.91598 8.09865 8.24199 8.35498 8.47496 8.5625 8.63937 8.71199 8.78177 8.84627 8.90341 8.96473 9.02574 9.08255 9.14958 9.21735 9.2804 9.33839 9.38534 9.42471 9.46639 9.51833 9.56279 9.58854 9.61008 9.6482 9.69115 9.73974 9.79308 9.82926 9.8687 9.9113 9.95194 9.99191 10.0191 10.0364 10.0657 10.0971 10.1267 10.1491 10.1714 10.201 10.2261 10.2482 10.2807 10.3207 10.363 10.4029 10.4387 10.4797 10.5251 10.5722 10.6129 10.6532 10.6951 10.7287 10.7711 10.81 10.8435 10.8834 10.9218 10.9612 11.0033 11.0412 11.0789 11.1161 11.1556 11.189 11.2181 11.2473 11.2814 11.3115 11.3381 11.365 11.3891 11.4114 11.436 11.4581 11.4739 11.4912 11.5068 11.5244 11.5461 11.5632 11.5823 11.6008 11.614 11.6286 11.6409 11.649 11.6578 11.6668 11.6818 11.7035
255.5375 0.00025 4.84487 5.90147 6.88552 7.24951 7.53616 7.72103 7.91462 8.09709 8.24145 8.35554 8.4756 8.56362 8.64074 8.71236 8.78116 8.84574 8.90345 8.96515 9.02673 9.08289 9.14928 9.21733 9.28093 9.33873 9.38509 9.42517 9.46785 9.51997 9.56417 9.58917 9.61104 9.64931 9.69175 9.74042 9.79358 9.82994 9.86929 9.91161 9.95234 9.99169 10.0186 10.0356 10.0643 10.0958 10.1258 10.1483 10.1709 10.2006 10.2257 10.2476 10.2799 10.3199 10.3624 10.4024 10.4379 10.4792 10.5254 10.5726 10.6133 10.6532 10.6947 10.7283 10.7708 10.81 10.8434 10.8832 10.9217 10.9611 11.0034 11.0418 11.0796 11.1167 11.1557 11.1889 11.218 11.2471 11.2814 11.3115 11.338 11.3649 11.3891 11.4111 11.4356 11.4578 11.4738 11.4912 11.5069 11.5244 11.5461 11.5632 11.5821 11.6006 11.614 11.6287 11.6408 11.6489 11.6576 11.6667 11.6818 11.7036
255.54 0.00025 4.84495 5.90218 6.88665 7.24941 7.53613 7.72039 7.9133 8.09543 8.2408 8.35614 8.47633 8.56469 8.64203 8.7127 8.78061 8.84525 8.90348 8.96554 9.02772 9.08334 9.14904 9.21726 9.28144 9.33905 9.38486 9.42572 9.46939 9.52149 9.56536 9.58981 9.61209 9.65043 9.69236 9.74107 9.79397 9.83058 9.86995 9.91194 9.95268 9.99145 10.0181 10.035 10.063 10.0944 10.1248 10.1475 10.1703 10.2001 10.2252 10.2471 10.279 10.319 10.3617 10.402 10.4373 10.4788 10.5256 10.5729 10.6136 10.6533 10.6942 10.7278 10.7706 10.8099 10.8433 10.883 10.9216 10.961 11.0036 11.0423 11.0803 11.1173 11.1559 11.1887 11.2178 11.247 11.2814 11.3116 11.3379 11.3648 11.389 11.4108 11.4352 11.4576 11.4738 11.4912 11.5069 11.5244 11.5461 11.5632 11.582 11.6004 11.614 11.6287 11.6408 11.6487 11.6575 11.6667 11.6818 11.7037
255.5425 0.00025 4.84499 5.9029 6.88781 7.24925 7.5361 7.71991 7.91203 8.0937 8.24005 8.35676 8.47715 8.56571 8.64324 8.71301 8.7801 8.8448 8.90352 8.96592 9.02871 9.08388 9.14887 9.21714 9.28189 9.33933 9.38467 9.42639 9.47099 9.52287 9.56634 9.59046 9.61326 9.65157 9.693 9.7417 9.79426 9.83118 9.87066 9.91227 9.95297 9.9912 10.0177 10.0344 10.0617 10.093 10.1239 10.1468 10.1698 10.1996 10.2248 10.2467 10.2782 10.318 10.361 10.4015 10.4367 10.4784 10.5257 10.5732 10.614 10.6534 10.6937 10.7273 10.7702 10.8097 10.8433 10.8829 10.9214 10.9608 11.0037 11.0428 11.081 11.118 11.1561 11.1886 11.2176 11.2468 11.2814 11.3116 11.3379 11.3648 11.3889 11.4105 11.4347 11.4573 11.4737 11.4913 11.507 11.5244 11.5461 11.5632 11.5818 11.6003 11.614 11.6288 11.6408 11.6486 11.6573 11.6666 11.6818 11.7038
255.545 0.00025 4.845 5.90361 6.88898 7.24898 7.53604 7.71961 7.91084 8.09191 8.23922 8.35739 8.47806 8.56671 8.64436 8.71328 8.77963 8.84439 8.9036 8.96628 9.02968 9.0845 9.14878 9.21699 9.28225 9.33955 9.38455 9.42718 9.47267 9.52412 9.56711 9.59112 9.61453 9.65272 9.69365 9.74232 9.79447 9.83173 9.87141 9.91262 9.95321 9.99094 10.0173 10.0339 10.0604 10.0915 10.1228 10.1461 10.1693 10.199 10.2244 10.2463 10.2774 10.317 10.3602 10.4011 10.4362 10.478 10.5257 10.5734 10.6144 10.6536 10.6932 10.7268 10.7699 10.8096 10.8433 10.8829 10.9213 10.9606 11.0037 11.0433 11.0817 11.1187 11.1562 11.1884 11.2175 11.2467 11.2814 11.3117 11.3378 11.3647 11.3889 11.4103 11.4343 11.457 11.4736 11.4913 11.507 11.5244 11.5461 11.5632 11.5817 11.6001 11.614 11.6289 11.6408 11.6485 11.6571 11.6665 11.6818 11.704
255.5475 0.00025 4.84498 5.90432 6.89014 7.24862 7.53595 7.71946 7.90977 8.09009 8.23833 8.35799 8.47902 8.5677 8.64542 8.7135 8.77918 8.84403 8.90371 8.96664 9.0306 9.08518 9.14881 9.21682 9.2825 9.33969 9.38452 9.42813 9.47442 9.52523 9.56769 9.59178 9.61589 9.65388 9.69431 9.74294 9.7946 9.83222 9.87219 9.91295 9.95338 9.99068 10.0169 10.0334 10.0592 10.0901 10.1217 10.1455 10.1688 10.1985 10.2239 10.246 10.2766 10.3159 10.3594 10.4007 10.4358 10.4776 10.5257 10.5735 10.6147 10.6537 10.6928 10.7264 10.7695 10.8094 10.8434 10.8829 10.9212 10.9604 11.0037 11.0438 11.0824 11.1194 11.1564 11.1882 11.2173 11.2465 11.2814 11.3118 11.3378 11.3647 11.3888 11.41 11.4338 11.4567 11.4735 11.4914 11.5071 11.5244 11.5461 11.5632 11.5815 11.5999 11.614 11.6289 11.6407 11.6484 11.657 11.6664 11.6818 11.7041
255.55 0.00025 4.84494 5.90502 6.8913 7.24817 7.53579 7.71947 7.90884 8.08828 8.23738 8.35855 8.48003 8.56869 8.64643 8.71367 8.77873 8.8437 8.9039 8.967 9.03147 9.0859 9.14894 9.21663 9.28261 9.33977 9.38458 9.42923 9.47623 9.52623 9.56808 9.59246 9.61734 9.65504 9.69499 9.74354 9.79468 9.83266 9.87297 9.91328 9.95351 9.99042 10.0166 10.033 10.0581 10.0886 10.1206 10.1448 10.1684 10.1978 10.2235 10.2458 10.2759 10.3148 10.3586 10.4002 10.4354 10.4772 10.5256 10.5736 10.6151 10.6539 10.6923 10.7259 10.7691 10.8091 10.8435 10.8829 10.9211 10.9602 11.0037 11.0442 11.0832 11.1201 11.1566 11.1881 11.2171 11.2464 11.2814 11.3118 11.3378 11.3646 11.3888 11.4097 11.4334 11.4564 11.4735 11.4914 11.5072 11.5244 11.5461 11.5632 11.5814 11.5998 11.6139 11.629 11.6407 11.6483 11.6568 11.6663 11.6818 11.7042
255.5525 0.00025 4.84488 5.90571 6.89241 7.24761 7.53557 7.71959 7.90808 8.08652 8.23641 8.35904 8.48106 8.5697 8.6474 8.71379 8.77827 8.84342 8.90416 8.96739 9.03229 9.08666 9.14917 9.21645 9.28258 9.33978 9.38475 9.43048 9.4781 9.5271 9.5683 9.59314 9.61884 9.6562 9.69569 9.74414 9.79472 9.83305 9.87373 9.91358 9.95358 9.99017 10.0163 10.0327 10.0571 10.0872 10.1195 10.1442 10.1679 10.1972 10.223 10.2457 10.2752 10.3137 10.3576 10.3998 10.4351 10.4768 10.5254 10.5736 10.6154 10.6541 10.6919 10.7255 10.7686 10.8088 10.8436 10.8831 10.921 10.9599 11.0036 11.0447 11.0839 11.1208 11.1567 11.1879 11.2169 11.2463 11.2814 11.3119 11.3378 11.3646 11.3887 11.4095 11.4329 11.456 11.4734 11.4915 11.5073 11.5244 11.546 11.5631 11.5813 11.5996 11.6139 11.629 11.6407 11.6482 11.6566 11.6662 11.6818 11.7043
255.555 0.00025 4.84481 5.90639 6.89347 7.24697 7.53527 7.71981 7.9075 8.08484 8.23544 8.35946 8.48207 8.57071 8.64835 8.71386 8.77779 8.84316 8.90451 8.9678 9.03303 9.08742 9.14951 9.21626 9.28241 9.33973 9.38503 9.43186 9.48002 9.52788 9.56838 9.59382 9.6204 9.65737 9.69641 9.74473 9.79472 9.83337 9.87447 9.91387 9.95361 9.98992 10.0161 10.0324 10.0561 10.0858 10.1183 10.1436 10.1675 10.1966 10.2225 10.2455 10.2745 10.3126 10.3567 10.3993 10.4349 10.4764 10.5252 10.5735 10.6158 10.6543 10.6915 10.725 10.7681 10.8085 10.8438 10.8832 10.921 10.9596 11.0035 11.045 11.0846 11.1215 11.1569 11.1877 11.2168 11.2462 11.2814 11.312 11.3378 11.3646 11.3887 11.4093 11.4325 11.4557 11.4733 11.4916 11.5073 11.5245 11.546 11.5631 11.5812 11.5994 11.6139 11.6291 11.6408 11.6481 11.6564 11.6662 11.6817 11.7043
255.5575 0.00025 4.84473 5.90703 6.89446 7.24626 7.53488 7.72009 7.90711 8.08328 8.23447 8.3598 8.48304 8.57173 8.6493 8.7139 8.77728 8.84294 8.90496 8.96827 9.03372 9.08817 9.14992 9.21608 9.2821 9.33963 9.38543 9.43336 9.48198 9.52857 9.56834 9.59451 9.62197 9.65854 9.69715 9.74533 9.7947 9.83364 9.87515 9.91413 9.95362 9.98968 10.0158 10.0322 10.0553 10.0844 10.1172 10.143 10.1671 10.1959 10.222 10.2453 10.2739 10.3115 10.3557 10.3989 10.4346 10.4761 10.525 10.5734 10.616 10.6545 10.6911 10.7246 10.7676 10.8081 10.844 10.8834 10.9209 10.9594 11.0033 11.0454 11.0853 11.1222 11.1571 11.1875 11.2166 11.246 11.2814 11.312 11.3379 11.3646 11.3886 11.4091 11.432 11.4553 11.4732 11.4917 11.5075 11.5245 11.546 11.563 11.581 11.5993 11.6139 11.6292 11.6408 11.648 11.6562 11.6661 11.6817 11.7044
255.56 0.00025 4.84467 5.90765 6.89537 7.24549 7.53439 7.72041 7.90691 8.08188 8.23353 8.36005 8.48393 8.57275 8.65025 8.7139 8.77672 8.84276 8.90549 8.9688 9.03434 9.08891 9.1504 9.21589 9.28168 9.3395 9.38596 9.43494 9.48396 9.52918 9.5682 9.59519 9.62356 9.65971 9.69793 9.74592 9.79465 9.83386 9.87576 9.91437 9.95361 9.98944 10.0156 10.032 10.0545 10.0832 10.116 10.1423 10.1667 10.1953 10.2215 10.2452 10.2734 10.3104 10.3547 10.3984 10.4344 10.4758 10.5247 10.5733 10.6163 10.6548 10.6907 10.7242 10.767 10.8077 10.8442 10.8837 10.9209 10.9591 11.0031 11.0457 11.086 11.123 11.1573 11.1873 11.2164 11.246 11.2814 11.3121 11.3379 11.3646 11.3886 11.4089 11.4315 11.4549 11.473 11.4917 11.5076 11.5246 11.5459 11.563 11.5809 11.5991 11.6139 11.6292 11.6408 11.6479 11.6561 11.666 11.6817 11.7045
255.5625 0.00025 4.84461 5.90823 6.89617 7.24469 7.53382 7.72072 7.9069 8.08068 8.23264 8.36022 8.48474 8.57377 8.6512 8.71388 8.77612 8.8426 8.90611 8.9694 9.03491 9.08963 9.15092 9.2157 9.28115 9.33936 9.38661 9.43658 9.48593 9.52975 9.568 9.59588 9.62513 9.66088 9.69874 9.74652 9.79457 9.83401 9.87629 9.91459 9.9536 9.98919 10.0154 10.0319 10.0538 10.082 10.1148 10.1416 10.1663 10.1946 10.2209 10.245 10.2729 10.3094 10.3536 10.3978 10.4342 10.4754 10.5244 10.5732 10.6165 10.655 10.6904 10.7237 10.7664 10.8072 10.8445 10.884 10.9209 10.9589 11.0029 11.046 11.0867 11.1237 11.1576 11.1872 11.2162 11.2459 11.2813 11.3121 11.338 11.3645 11.3886 11.4087 11.4311 11.4545 11.4729 11.4918 11.5077 11.5246 11.5459 11.5629 11.5808 11.599 11.6138 11.6293 11.6408 11.6478 11.6559 11.6658 11.6816 11.7046
255.565 0.00025 4.84456 5.90876 6.89686 7.24387 7.53317 7.721 7.90706 8.0797 8.23181 8.36031 8.48542 8.57478 8.65216 8.71385 8.77549 8.84249 8.90681 8.97008 9.03544 9.09033 9.15146 9.21549 9.28055 9.33922 9.38738 9.43827 9.48787 9.53027 9.56776 9.59657 9.62668 9.66203 9.69959 9.74713 9.79447 9.8341 9.87673 9.91479 9.9536 9.98893 10.0151 10.0318 10.0532 10.0809 10.1137 10.1409 10.1658 10.194 10.2204 10.2448 10.2725 10.3085 10.3525 10.3973 10.434 10.4751 10.524 10.573 10.6167 10.6551 10.6901 10.7234 10.7658 10.8067 10.8447 10.8843 10.9209 10.9586 11.0026 11.0462 11.0874 11.1244 11.1578 11.187 11.216 11.2458 11.2813 11.3121 11.338 11.3646 11.3886 11.4085 11.4306 11.454 11.4728 11.4919 11.5078 11.5247 11.5459 11.5628 11.5807 11.5989 11.6138 11.6293 11.6409 11.6478 11.6557 11.6657 11.6816 11.7047
255.5675 0.00025 4.84454 5.90925 6.89742 7.24304 7.53247 7.72122 7.90736 8.07896 8.23108 8.36033 8.48597 8.57577 8.65312 8.71381 8.77483 8.84242 8.90757 8.97082 9.03593 9.09099 9.15202 9.21527 9.2799 9.33909 9.38828 9.43997 9.48974 9.53075 9.56751 9.59727 9.6282 9.66317 9.70048 9.74775 9.79434 9.83412 9.87707 9.91498 9.9536 9.98865 10.0149 10.0318 10.0527 10.0799 10.1127 10.1401 10.1654 10.1934 10.2198 10.2445 10.2721 10.3076 10.3515 10.3967 10.4338 10.4747 10.5237 10.5728 10.6169 10.6553 10.6899 10.723 10.7651 10.8062 10.845 10.8846 10.921 10.9584 11.0023 11.0464 11.088 11.1251 11.158 11.1869 11.2159 11.2458 11.2813 11.3121 11.3381 11.3646 11.3885 11.4084 11.4301 11.4535 11.4726 11.492 11.508 11.5248 11.5458 11.5627 11.5806 11.5987 11.6138 11.6294 11.6409 11.6477 11.6555 11.6656 11.6816 11.7048
255.57 0.00025 4.84456 5.90968 6.89784 7.24222 7.53174 7.72136 7.90777 8.07848 8.23046 8.36029 8.48636 8.57673 8.65408 8.71376 8.77415 8.8424 8.90838 8.97162 9.03639 9.09162 9.15258 9.21503 9.27923 9.33899 9.3893 9.44168 9.49154 9.53119 9.56727 9.59799 9.62967 9.66429 9.70142 9.74838 9.79417 9.83408 9.87731 9.91516 9.95362 9.98835 10.0147 10.0317 10.0522 10.0791 10.1116 10.1392 10.1649 10.1928 10.2192 10.2442 10.2717 10.3068 10.3504 10.3961 10.4335 10.4744 10.5234 10.5726 10.617 10.6555 10.6896 10.7226 10.7644 10.8056 10.8452 10.885 10.921 10.9582 11.002 11.0465 11.0887 11.1258 11.1583 11.1868 11.2157 11.2457 11.2813 11.3121 11.3382 11.3646 11.3885 11.4083 11.4297 11.4531 11.4725 11.4922 11.5082 11.5249 11.5458 11.5626 11.5804 11.5986 11.6138 11.6294 11.641 11.6477 11.6554 11.6655 11.6815 11.7048
255.5725 0.00025 4.84461 5.91004 6.89813 7.24142 7.53103 7.7214 7.90824 8.07823 8.22997 8.36021 8.4866 8.57765 8.65502 8.71371 8.77349 8.84245 8.90923 8.97246 9.03683 9.09221 9.15314 9.21477 9.27854 9.33894 9.39044 9.44339 9.49323 9.53159 9.56706 9.59873 9.6311 9.6654 9.70239 9.749 9.79397 9.83397 9.87746 9.91534 9.95366 9.98804 10.0145 10.0317 10.0518 10.0783 10.1107 10.1384 10.1644 10.1923 10.2185 10.2438 10.2714 10.3061 10.3494 10.3954 10.4332 10.474 10.523 10.5725 10.617 10.6556 10.6894 10.7223 10.7637 10.805 10.8455 10.8854 10.9211 10.9581 11.0017 11.0466 11.0892 11.1264 11.1585 11.1867 11.2156 11.2457 11.2813 11.3121 11.3383 11.3646 11.3885 11.4082 11.4292 11.4525 11.4723 11.4923 11.5083 11.525 11.5458 11.5626 11.5803 11.5985 11.6138 11.6295 11.641 11.6476 11.6552 11.6654 11.6815 11.7049
255.575 0.00025 4.84471 5.91033 6.89827 7.24065 7.53035 7.72136 7.90872 8.07821 8.22962 8.36012 8.48668 8.57852 8.65594 8.71365 8.77285 8.84256 8.91011 8.97333 9.03726 9.09276 9.15369 9.21451 9.27786 9.33894 9.39167 9.44509 9.49482 9.53194 9.5669 9.59951 9.63248 9.66648 9.7034 9.74963 9.79373 9.8338 9.87753 9.9155 9.95371 9.98771 10.0143 10.0318 10.0515 10.0777 10.1099 10.1374 10.1638 10.1918 10.2179 10.2433 10.271 10.3054 10.3484 10.3947 10.4329 10.4736 10.5227 10.5723 10.6171 10.6556 10.6892 10.722 10.763 10.8044 10.8457 10.8857 10.9212 10.958 11.0014 11.0466 11.0898 11.127 11.1588 11.1867 11.2154 11.2457 11.2812 11.3121 11.3384 11.3646 11.3884 11.4082 11.4288 11.452 11.4721 11.4924 11.5085 11.5251 11.5457 11.5625 11.5802 11.5984 11.6137 11.6295 11.6411 11.6476 11.655 11.6652 11.6814 11.705
255.5775 0.00025 4.84485 5.91055 6.89828 7.23992 7.52975 7.72123 7.90919 8.07837 8.22944 8.36003 8.4866 8.57932 8.65684 8.71358 8.77227 8.84275 8.911 8.97421 9.03768 9.09328 9.15424 9.21425 9.2772 9.33897 9.39299 9.44679 9.49629 9.53223 9.56678 9.60033 9.63382 9.66756 9.70443 9.75023 9.79345 9.83356 9.87752 9.91566 9.95376 9.98736 10.0141 10.0318 10.0513 10.0772 10.1091 10.1365 10.1632 10.1913 10.2172 10.2428 10.2707 10.3049 10.3474 10.3939 10.4325 10.4732 10.5223 10.5721 10.6171 10.6557 10.689 10.7216 10.7623 10.8038 10.846 10.8861 10.9214 10.958 11.0012 11.0465 11.0902 11.1276 11.1591 11.1866 11.2153 11.2457 11.2812 11.312 11.3384 11.3646 11.3884 11.4081 11.4284 11.4515 11.4719 11.4925 11.5087 11.5252 11.5457 11.5624 11.58 11.5983 11.6137 11.6295 11.6411 11.6476 11.6548 11.6651 11.6814 11.705
255.58 0.00025 4.84502 5.91072 6.89816 7.23925 7.52923 7.72102 7.90959 8.07868 8.22942 8.35997 8.48637 8.58006 8.65769 8.71349 8.77175 8.84303 8.91191 8.97507 9.03809 9.09376 9.15477 9.21404 9.27658 9.33904 9.39438 9.44847 9.49766 9.53247 9.56671 9.6012 9.63512 9.66862 9.70549 9.7508 9.79312 9.83325 9.87746 9.9158 9.95381 9.98701 10.0139 10.0318 10.0511 10.0769 10.1084 10.1355 10.1626 10.1908 10.2165 10.2422 10.2705 10.3044 10.3465 10.3931 10.4321 10.4728 10.5219 10.572 10.6171 10.6557 10.6889 10.7214 10.7616 10.8032 10.8462 10.8864 10.9215 10.958 11.0009 11.0465 11.0907 11.1282 11.1594 11.1866 11.2152 11.2458 11.2812 11.312 11.3385 11.3646 11.3883 11.4081 11.428 11.4509 11.4717 11.4926 11.5089 11.5253 11.5457 11.5622 11.5799 11.5982 11.6137 11.6295 11.6412 11.6476 11.6547 11.6649 11.6813 11.7051
255.5825 0.00025 4.84523 5.91083 6.8979 7.23864 7.52881 7.72076 7.90991 8.07907 8.22957 8.35996 8.48602 8.5807 8.6585 8.71338 8.77133 8.84339 8.91282 8.97589 9.03848 9.09421 9.1553 9.2139 9.27603 9.33913 9.39581 9.45012 9.49892 9.53266 9.56668 9.60211 9.63639 9.6697 9.70657 9.75132 9.79275 9.8329 9.87736 9.91593 9.95385 9.98666 10.0137 10.0318 10.051 10.0766 10.1078 10.1346 10.1619 10.1903 10.2159 10.2415 10.2702 10.3041 10.3456 10.3923 10.4317 10.4723 10.5216 10.5718 10.617 10.6556 10.6887 10.7211 10.7609 10.8026 10.8463 10.8868 10.9217 10.958 11.0006 11.0463 11.0911 11.1287 11.1596 11.1867 11.2152 11.2458 11.2812 11.3119 11.3386 11.3646 11.3883 11.4081 11.4277 11.4503 11.4714 11.4926 11.5091 11.5255 11.5457 11.5621 11.5797 11.5981 11.6137 11.6295 11.6412 11.6476 11.6545 11.6648 11.6812 11.7052
255.585 0.00025 4.84547 5.91089 6.89753 7.2381 7.5285 7.72046 7.91012 8.0795 8.22987 8.36002 8.48557 8.58125 8.65926 8.71327 8.77101 8.84384 8.91373 8.97664 9.03886 9.09463 9.1558 9.21387 9.27555 9.33922 9.39728 9.45175 9.50008 9.5328 9.56668 9.60306 9.63764 9.67079 9.70765 9.75177 9.79234 9.83251 9.87723 9.91603 9.95386 9.98631 10.0135 10.0319 10.051 10.0764 10.1073 10.1336 10.1612 10.1898 10.2151 10.2408 10.2699 10.3038 10.3448 10.3915 10.4311 10.4718 10.5212 10.5717 10.6169 10.6555 10.6885 10.7208 10.7603 10.8021 10.8465 10.8871 10.9218 10.9581 11.0004 11.0462 11.0914 11.1292 11.1599 11.1867 11.2151 11.2459 11.2812 11.3118 11.3387 11.3647 11.3882 11.4081 11.4274 11.4498 11.4712 11.4927 11.5093 11.5256 11.5456 11.562 11.5796 11.598 11.6137 11.6295 11.6413 11.6476 11.6544 11.6646 11.6812 11.7052
255.5875 0.00025 4.84575 5.91091 6.89704 7.23763 7.52831 7.72015 7.91021 8.07991 8.23032 8.36018 8.48503 8.58167 8.65997 8.71315 8.77081 8.84439 8.91461 8.97731 9.03923 9.09503 9.15628 9.21397 9.27518 9.3393 9.39876 9.45335 9.50114 9.53291 9.56672 9.60401 9.63888 9.6719 9.70872 9.75214 9.79189 9.83208 9.87707 9.91611 9.95384 9.98596 10.0133 10.0319 10.051 10.0764 10.1068 10.1327 10.1605 10.1893 10.2144 10.24 10.2696 10.3036 10.344 10.3906 10.4306 10.4712 10.5208 10.5717 10.6168 10.6553 10.6883 10.7206 10.7596 10.8015 10.8466 10.8874 10.922 10.9582 11.0002 11.046 11.0917 11.1296 11.1602 11.1868 11.2151 11.246 11.2812 11.3118 11.3388 11.3647 11.3881 11.4082 11.4271 11.4492 11.4709 11.4928 11.5095 11.5258 11.5456 11.5619 11.5794 11.598 11.6137 11.6295 11.6413 11.6476 11.6542 11.6644 11.6811 11.7053
255.59 0.00025 4.84607 5.91088 6.89645 7.23724 7.52825 7.71983 7.91018 8.08025 8.2309 8.36045 8.48446 8.58197 8.6606 8.71306 8.77074 8.84503 8.91548 8.97788 9.03959 9.0954 9.15671 9.21425 9.27494 9.33935 9.40021 9.4549 9.50211 9.53302 9.56678 9.60496 9.6401 9.67306 9.70978 9.75241 9.79141 9.83164 9.87691 9.91615 9.95378 9.98562 10.013 10.0319 10.0511 10.0765 10.1064 10.1317 10.1597 10.1888 10.2137 10.2391 10.2693 10.3035 10.3433 10.3898 10.43 10.4707 10.5204 10.5716 10.6167 10.6551 10.6881 10.7203 10.759 10.8009 10.8467 10.8876 10.9221 10.9584 11.0001 11.0458 11.0919 11.13 11.1604 11.187 11.2152 11.246 11.2812 11.3117 11.3389 11.3647 11.388 11.4082 11.4268 11.4487 11.4706 11.4928 11.5097 11.526 11.5456 11.5618 11.5792 11.5979 11.6137 11.6295 11.6413 11.6476 11.6541 11.6643 11.681 11.7053
255.5925 0.00025 4.84642 5.91082 6.89577 7.23695 7.52831 7.71954 7.91001 8.08047 8.23156 8.36082 8.48387 8.58213 8.66116 8.71299 8.77081 8.84575 8.91632 8.97831 9.03995 9.09576 9.15708 9.21472 9.27487 9.33937 9.40162 9.45641 9.503 9.53312 9.56687 9.60589 9.64133 9.67427 9.71081 9.75259 9.79088 9.8312 9.87674 9.91615 9.95368 9.98529 10.0128 10.032 10.0513 10.0766 10.1061 10.1309 10.1589 10.1882 10.213 10.2382 10.269 10.3034 10.3426 10.3889 10.4293 10.47 10.52 10.5716 10.6166 10.6549 10.6878 10.7201 10.7585 10.8004 10.8468 10.8878 10.9223 10.9587 11 11.0455 11.092 11.1303 11.1606 11.1871 11.2153 11.2462 11.2812 11.3116 11.3389 11.3647 11.3878 11.4082 11.4266 11.4481 11.4703 11.4929 11.5099 11.5262 11.5457 11.5618 11.5791 11.5978 11.6137 11.6295 11.6414 11.6476 11.6539 11.6641 11.6809 11.7054