255.5025 0.00025 0.583581 0.850578 1.01673 0.910901 0.865509 0.737234 0.651906 0.584979 0.584465 0.585775 0.572101 0.562292 0.555054 0.532247 0.501609 0.494812 0.480226 0.458836 0.467427 0.466066 0.444208 0.425136 0.426407 0.434034 0.445218 0.460781 0.485981 0.51283 0.542554 0.576314 0.59869 0.611144 0.6071 0.608995 0.618072 0.612803 0.591731 0.566828 0.545373 0.531667 0.534532 0.529962 0.505613 0.491265 0.490084 0.473886 0.44287 0.41928 0.41192 0.395013 0.377672 0.364982 0.334738 0.305826 0.287727 0.262966 0.243223 0.234684 0.2299 0.223283 0.210046 0.196924 0.182292 0.174154 0.160411 0.145145 0.140898 0.142285 0.1381 0.134833 0.137215 0.135871 0.133084 0.133186 0.135622 0.132579 0.12554 0.117105 0.109172 0.10297 0.0970351 0.0884446 0.0817529 0.0814317 0.0829295 0.0768656 0.0696065 0.0659979 0.0614975 0.0562855 0.0505437 0.0454332 0.0415725 0.0373397 0.0347134 0.032983 0.0312921 0.0320314 0.0343733 0.0401021
255.505 0.00025 0.582212 0.849138 1.01631 0.910942 0.869665 0.740824 0.654308 0.586826 0.585788 0.584925 0.570382 0.560066 0.554484 0.533622 0.502777 0.493545 0.480132 0.45912 0.466555 0.466015 0.446637 0.427517 0.428175 0.436566 0.44657 0.461164 0.485741 0.51206 0.541852 0.576658 0.598878 0.611159 0.606793 0.608568 0.617602 0.612138 0.591322 0.565857 0.544957 0.532267 0.533784 0.529174 0.505963 0.491425 0.489764 0.4728 0.442055 0.419467 0.412493 0.395672 0.378104 0.365116 0.335002 0.306387 0.288496 0.263413 0.243746 0.235577 0.230347 0.223536 0.210065 0.197019 0.182525 0.174233 0.160663 0.145494 0.141423 0.142625 0.138088 0.134602 0.137202 0.135922 0.133048 0.132708 0.135146 0.132644 0.125943 0.117413 0.109259 0.102925 0.0971736 0.0887376 0.0818762 0.0814001 0.0828627 0.076874 0.0697026 0.0659924 0.0613918 0.0563664 0.050706 0.0454435 0.0416173 0.0374477 0.0347915 0.0331143 0.0313609 0.0320788 0.0344474 0.0401867
255.5075 0.00025 0.581441 0.848092 1.01598 0.910931 0.873216 0.744369 0.656655 0.588713 0.587033 0.583842 0.568364 0.557359 0.553541 0.534579 0.503929 0.492231 0.480004 0.459625 0.465805 0.465646 0.448861 0.430104 0.430085 0.439211 0.448335 0.461925 0.48572 0.511455 0.541464 0.577079 0.599085 0.611398 0.606886 0.608466 0.617078 0.611455 0.591183 0.565119 0.544615 0.533052 0.533235 0.528477 0.506309 0.491717 0.48958 0.471808 0.441309 0.419638 0.413142 0.396505 0.378702 0.365311 0.335308 0.307056 0.289441 0.264007 0.244445 0.236522 0.23073 0.223783 0.210097 0.197128 0.182775 0.174293 0.160913 0.145843 0.141922 0.142941 0.138059 0.134338 0.137135 0.135941 0.132985 0.132223 0.13463 0.132612 0.126267 0.117715 0.109345 0.102848 0.0972559 0.0890122 0.0820173 0.0813628 0.0827734 0.0768743 0.069811 0.0660042 0.0612903 0.0564442 0.0508842 0.045472 0.041663 0.0375619 0.0348776 0.0332482 0.0314413 0.0321363 0.0345394 0.0402897
255.51 0.00025 0.58074 0.847216 1.01552 0.910892 0.876117 0.747854 0.659107 0.590684 0.588256 0.582667 0.566247 0.554467 0.552399 0.535218 0.505075 0.490915 0.479825 0.460287 0.465159 0.464961 0.45076 0.432739 0.432041 0.441763 0.450366 0.462929 0.485788 0.510872 0.541198 0.577406 0.599146 0.611693 0.607169 0.608521 0.616348 0.610569 0.59111 0.564452 0.544242 0.533871 0.532785 0.527807 0.506542 0.49203 0.489414 0.470853 0.44061 0.419754 0.41381 0.397466 0.37941 0.365497 0.335569 0.307726 0.290466 0.264678 0.245256 0.237452 0.231015 0.223989 0.210117 0.197232 0.183008 0.174288 0.161133 0.146162 0.142383 0.143232 0.138003 0.134044 0.137025 0.135942 0.132912 0.131749 0.134088 0.132513 0.12652 0.118012 0.109438 0.102738 0.0972803 0.089263 0.0821637 0.0813247 0.0826775 0.0768676 0.0699172 0.0660213 0.0611883 0.0565108 0.0510666 0.0455145 0.0417054 0.0376752 0.0349677 0.033382 0.031527 0.0321947 0.034637 0.0403997
255.5125 0.00025 0.580016 0.846449 1.01492 0.910909 0.878445 0.751265 0.661811 0.592747 0.589466 0.581499 0.564159 0.551542 0.551135 0.535614 0.506215 0.489676 0.479645 0.46109 0.464637 0.464042 0.452312 0.435367 0.434032 0.444178 0.45266 0.464181 0.485945 0.510309 0.541028 0.577614 0.599053 0.612021 0.607591 0.608706 0.615403 0.609464 0.591077 0.56386 0.543874 0.534689 0.532429 0.52719 0.506661 0.492324 0.48921 0.469945 0.439982 0.419808 0.414448 0.398539 0.380225 0.365683 0.335799 0.308396 0.291549 0.265416 0.246162 0.238359 0.231218 0.224172 0.210136 0.197339 0.183223 0.17422 0.161333 0.146469 0.142827 0.143513 0.137947 0.133751 0.136891 0.135931 0.132833 0.13129 0.133528 0.132361 0.126698 0.118294 0.109539 0.102617 0.0972772 0.0894956 0.0823091 0.0812959 0.0825869 0.0768522 0.0700209 0.0660447 0.0610876 0.0565631 0.0512468 0.0455683 0.0417415 0.0377834 0.0350617 0.0335168 0.0316178 0.0322515 0.0347363 0.0405151
255.515 0.00025 0.579315 0.845763 1.01419 0.910995 0.880222 0.754541 0.664813 0.594882 0.590628 0.580402 0.562153 0.548656 0.549767 0.535788 0.507294 0.488547 0.479486 0.461981 0.464243 0.462985 0.453508 0.437946 0.436016 0.446445 0.455221 0.465702 0.486221 0.509776 0.540945 0.577699 0.598836 0.612381 0.608131 0.609007 0.614249 0.608156 0.591094 0.563358 0.543505 0.535444 0.532139 0.526632 0.506698 0.492584 0.488933 0.469093 0.43944 0.419783 0.415012 0.399699 0.381138 0.365871 0.335999 0.309036 0.292658 0.266222 0.247157 0.239253 0.231348 0.224336 0.210172 0.197455 0.183433 0.174118 0.161531 0.146802 0.14328 0.143793 0.137896 0.133473 0.136735 0.135911 0.132752 0.130849 0.13296 0.132169 0.126803 0.118557 0.109656 0.102506 0.0972611 0.0897109 0.0824547 0.08127 0.0824909 0.0768239 0.0701247 0.0660758 0.0609891 0.0566007 0.0514207 0.04563 0.0417692 0.0378825 0.0351583 0.0336522 0.0317151 0.0323075 0.0348362 0.0406335
255.5175 0.00025 0.578479 0.845114 1.01339 0.911141 0.881437 0.75764 0.668113 0.597092 0.591691 0.579388 0.560236 0.545837 0.548301 0.535758 0.508267 0.487538 0.479375 0.462927 0.463962 0.461894 0.454352 0.44045 0.43794 0.448559 0.458033 0.467476 0.486655 0.509304 0.540936 0.57765 0.59853 0.612782 0.608769 0.609371 0.612895 0.606666 0.591125 0.56292 0.543132 0.536069 0.531862 0.526118 0.50669 0.492805 0.488554 0.468299 0.439002 0.419677 0.415476 0.400942 0.382155 0.36607 0.336167 0.309624 0.29377 0.267104 0.248242 0.240139 0.231402 0.22447 0.210236 0.197591 0.183659 0.173998 0.161737 0.147184 0.143747 0.144072 0.137852 0.133218 0.136562 0.135885 0.132668 0.130437 0.132402 0.131956 0.126849 0.118804 0.109792 0.102402 0.0972234 0.0899081 0.0826059 0.0812387 0.082375 0.0767796 0.0702243 0.0661112 0.0608931 0.0566256 0.0515854 0.0456986 0.0417882 0.0379697 0.0352548 0.0337849 0.0318193 0.0323661 0.0349374 0.0407531
255.52 0.00025 0.577468 0.844405 1.01254 0.911338 0.882102 0.760565 0.671666 0.599387 0.592622 0.578445 0.558417 0.543116 0.546737 0.535549 0.509092 0.486635 0.47934 0.4639 0.46378 0.460863 0.454857 0.442864 0.439766 0.450514 0.461045 0.469471 0.487304 0.508929 0.540981 0.577482 0.598186 0.613244 0.609485 0.609738 0.611357 0.605018 0.591127 0.562534 0.542802 0.536548 0.531556 0.525627 0.506665 0.492985 0.488071 0.467576 0.438703 0.419509 0.41582 0.402252 0.383276 0.366296 0.336318 0.310164 0.29486 0.268064 0.249406 0.241006 0.231378 0.224567 0.210323 0.197756 0.183907 0.173865 0.161946 0.147598 0.144204 0.144348 0.137828 0.132989 0.136374 0.135853 0.132592 0.130069 0.131869 0.131735 0.126853 0.119034 0.109942 0.102307 0.0971629 0.0900909 0.0827677 0.0812081 0.0822456 0.076719 0.0703101 0.0661447 0.060798 0.0566388 0.0517419 0.0457795 0.0418046 0.0380466 0.0353496 0.0339129 0.0319296 0.0324291 0.0350417 0.0408758
255.5225 0.00025 0.576289 0.843614 1.01164 0.911571 0.882278 0.763304 0.675423 0.601784 0.593429 0.577552 0.556734 0.540508 0.54509 0.535182 0.509755 0.485833 0.479412 0.464897 0.463676 0.459954 0.455071 0.445179 0.441491 0.452306 0.464184 0.471642 0.488206 0.508665 0.541024 0.577177 0.597841 0.613782 0.610263 0.61007 0.609647 0.603247 0.5911 0.562213 0.542562 0.536887 0.531187 0.525136 0.506652 0.493116 0.487487 0.466933 0.438569 0.419287 0.416014 0.403594 0.384497 0.36656 0.33647 0.310675 0.295915 0.269095 0.250625 0.241835 0.231287 0.224631 0.210426 0.197937 0.184167 0.173713 0.162144 0.148023 0.144639 0.144627 0.137829 0.132785 0.136172 0.135812 0.132523 0.129744 0.131359 0.131507 0.126815 0.119242 0.110107 0.102232 0.097091 0.0902632 0.0829412 0.0811888 0.0821158 0.0766444 0.070378 0.066173 0.0606989 0.0566401 0.0518928 0.0458771 0.0418235 0.0381165 0.0354443 0.0340371 0.0320429 0.0324927 0.0351504 0.0410033
255.525 0.00025 0.575016 0.842696 1.01074 0.911821 0.88201 0.765845 0.679324 0.604309 0.594155 0.576673 0.555236 0.538037 0.543372 0.534664 0.51025 0.485122 0.479591 0.465911 0.463642 0.459202 0.455057 0.447368 0.44314 0.453965 0.467378 0.473964 0.489359 0.50852 0.541023 0.576713 0.597499 0.614393 0.611115 0.610366 0.607797 0.6014 0.591045 0.561963 0.542406 0.537081 0.53072 0.524633 0.506692 0.493202 0.48681 0.466363 0.438605 0.419025 0.416048 0.404941 0.385813 0.366867 0.336626 0.311165 0.296931 0.270194 0.251878 0.242623 0.231156 0.224661 0.210535 0.198116 0.184425 0.173541 0.162318 0.148465 0.145065 0.144907 0.137842 0.132605 0.135953 0.13576 0.132459 0.129457 0.130868 0.131269 0.126733 0.11942 0.110296 0.102193 0.0970202 0.0904292 0.0831295 0.0811841 0.0819867 0.0765585 0.0704326 0.0662015 0.0605987 0.0566306 0.0520354 0.0459878 0.0418457 0.0381795 0.0355408 0.0341593 0.0321555 0.0325535 0.0352633 0.0411379
255.5275 0.00025 0.573648 0.841593 1.00985 0.912075 0.881355 0.768159 0.683296 0.606978 0.594846 0.575773 0.553954 0.535698 0.541593 0.534008 0.510566 0.484499 0.479859 0.466945 0.463663 0.458633 0.454891 0.449385 0.444749 0.455513 0.470546 0.476424 0.490761 0.508517 0.540947 0.576086 0.597163 0.615076 0.612027 0.610606 0.605851 0.599527 0.59095 0.561787 0.542336 0.537127 0.530127 0.524105 0.506816 0.493251 0.486047 0.465849 0.438811 0.418756 0.415931 0.406266 0.387219 0.367226 0.336792 0.311646 0.297919 0.271369 0.253166 0.243388 0.231006 0.224649 0.210644 0.198288 0.184684 0.173362 0.162475 0.148945 0.145492 0.145174 0.137857 0.13245 0.135723 0.135693 0.132389 0.129198 0.1304 0.131031 0.126616 0.119571 0.110515 0.102201 0.0969594 0.0905957 0.0833404 0.0811938 0.0818555 0.076469 0.0704865 0.0662432 0.0605093 0.0566164 0.0521665 0.0461083 0.0418714 0.0382339 0.0356376 0.0342779 0.0322659 0.0326115 0.0353754 0.0412745
255.53 0.00025 0.572184 0.840303 1.00899 0.912316 0.880368 0.770244 0.68727 0.609785 0.595538 0.574827 0.552904 0.533506 0.539774 0.533226 0.510693 0.483968 0.480205 0.467989 0.463746 0.458245 0.454649 0.4512 0.446357 0.456971 0.473588 0.479009 0.492408 0.508699 0.540776 0.575319 0.596859 0.615836 0.612978 0.610761 0.603842 0.597647 0.590799 0.561691 0.542384 0.537044 0.529394 0.523536 0.507029 0.49327 0.485212 0.46536 0.439171 0.418508 0.415674 0.407546 0.388703 0.367655 0.336976 0.312124 0.298876 0.272625 0.254491 0.24414 0.230851 0.224594 0.210756 0.198464 0.184962 0.173187 0.162615 0.149453 0.145907 0.145423 0.137879 0.132324 0.135481 0.135609 0.132311 0.128965 0.129955 0.130792 0.126477 0.119698 0.110746 0.102243 0.0969108 0.0907675 0.0835777 0.0812154 0.0817188 0.07638 0.0705475 0.0663017 0.0604351 0.0566011 0.0522864 0.046241 0.0419035 0.0382779 0.0357293 0.0343906 0.0323775 0.0326691 0.0354829 0.0414078
255.5325 0.00025 0.570633 0.838821 1.00815 0.91252 0.879124 0.77208 0.691173 0.612709 0.596252 0.573821 0.552075 0.531482 0.537949 0.532344 0.510631 0.48353 0.480612 0.469042 0.463904 0.458024 0.454403 0.452791 0.44801 0.458347 0.476394 0.481703 0.494286 0.509118 0.540504 0.574452 0.596612 0.616688 0.613961 0.61082 0.601784 0.595765 0.590581 0.561677 0.542554 0.536854 0.528538 0.522915 0.507323 0.493275 0.484323 0.464876 0.439674 0.4183 0.415301 0.40876 0.39025 0.36818 0.337191 0.312602 0.299786 0.273944 0.255835 0.244876 0.230703 0.224507 0.210885 0.198665 0.185266 0.173018 0.162725 0.149968 0.146297 0.145658 0.137914 0.132229 0.135231 0.135508 0.132223 0.128752 0.129531 0.130544 0.126325 0.119797 0.110969 0.102306 0.096872 0.0909401 0.083832 0.0812446 0.081574 0.0762903 0.0706115 0.0663672 0.060371 0.0565862 0.0523985 0.0463875 0.0419438 0.0383127 0.0358158 0.0345013 0.0324947 0.0327274 0.0355856 0.0415339
255.535 0.00025 0.56899 0.837113 1.00728 0.912668 0.87771 0.773645 0.694942 0.615725 0.597027 0.572786 0.551422 0.529634 0.536156 0.531378 0.510373 0.483186 0.481047 0.470105 0.464144 0.457956 0.454213 0.454149 0.449741 0.459656 0.478868 0.484491 0.496349 0.509802 0.540144 0.5735 0.596403 0.617613 0.614963 0.610786 0.599704 0.593888 0.590275 0.561711 0.542793 0.536543 0.527571 0.522218 0.507667 0.493282 0.4834 0.464382 0.440297 0.418151 0.414836 0.409885 0.391842 0.368808 0.337446 0.313089 0.300655 0.275298 0.257163 0.245604 0.23059 0.22439 0.211032 0.198884 0.185588 0.172848 0.16279 0.15047 0.146664 0.145881 0.137964 0.132166 0.134972 0.135383 0.132117 0.128557 0.129126 0.13028 0.12615 0.119852 0.111179 0.102379 0.0968349 0.0910978 0.0840844 0.081275 0.0814184 0.0761918 0.0706665 0.0664294 0.0603128 0.0565703 0.0525011 0.0465413 0.0419896 0.038341 0.035901 0.0346129 0.0326152 0.0327843 0.0356849 0.0416548
255.5375 0.00025 0.567266 0.835204 1.00635 0.912742 0.876205 0.774894 0.698514 0.61882 0.597896 0.571765 0.550873 0.527956 0.534446 0.530356 0.509912 0.482933 0.481489 0.471175 0.464476 0.458025 0.454116 0.455288 0.451576 0.460911 0.480974 0.487355 0.498552 0.510764 0.539722 0.572492 0.596226 0.618587 0.615954 0.610669 0.59764 0.592037 0.589863 0.561779 0.54306 0.536107 0.526511 0.521425 0.508028 0.493321 0.482482 0.46389 0.441018 0.418086 0.414314 0.410905 0.393446 0.369544 0.337756 0.313599 0.301496 0.276675 0.258458 0.246328 0.230516 0.224232 0.211191 0.19911 0.185916 0.172685 0.162815 0.150954 0.147018 0.146094 0.138034 0.132135 0.134705 0.135232 0.131997 0.12838 0.128744 0.13 0.125945 0.119856 0.11138 0.10246 0.0967986 0.0912339 0.0843317 0.0813074 0.0812532 0.076082 0.0707109 0.0664899 0.0602611 0.056552 0.0525915 0.0466984 0.0420431 0.038365 0.0359854 0.0347233 0.0327333 0.0328377 0.0357803 0.0417739
255.54 0.00025 0.565444 0.833139 1.00529 0.9127 0.874659 0.775803 0.701793 0.62199 0.598873 0.570799 0.550362 0.526422 0.532854 0.52929 0.509246 0.482762 0.481925 0.472243 0.464893 0.458221 0.454141 0.456251 0.45351 0.462111 0.482712 0.490247 0.500861 0.511997 0.539258 0.57146 0.596086 0.61959 0.616904 0.61049 0.595617 0.590211 0.589334 0.561887 0.54334 0.535552 0.525372 0.520513 0.508358 0.493408 0.481608 0.463399 0.441803 0.418127 0.41377 0.411804 0.395031 0.370388 0.338125 0.314137 0.302321 0.278073 0.259711 0.247044 0.230479 0.224026 0.211355 0.199335 0.186252 0.172543 0.16282 0.151427 0.147355 0.146291 0.138125 0.132136 0.134443 0.135061 0.131868 0.128219 0.128388 0.12971 0.125719 0.119812 0.111567 0.102546 0.0967645 0.0913534 0.0845829 0.0813436 0.0810782 0.0759655 0.0707484 0.0665486 0.060216 0.0565306 0.0526699 0.0468635 0.0421103 0.0383836 0.0360625 0.0348301 0.0328503 0.0328883 0.0358712 0.0418917
255.5425 0.00025 0.563544 0.830934 1.0041 0.91252 0.873154 0.77636 0.704693 0.625206 0.599963 0.569943 0.549825 0.525006 0.531409 0.528202 0.508389 0.48265 0.482345 0.473294 0.465386 0.458535 0.454307 0.457099 0.455527 0.463248 0.484117 0.493116 0.503253 0.513494 0.538791 0.570435 0.595998 0.620607 0.617801 0.610282 0.593658 0.588407 0.588673 0.562021 0.543615 0.534912 0.524192 0.519482 0.508615 0.493547 0.480805 0.462905 0.442603 0.418274 0.413236 0.412576 0.396569 0.371334 0.338559 0.314699 0.303146 0.279484 0.260912 0.247749 0.230485 0.223784 0.211514 0.199568 0.186604 0.17244 0.162827 0.151889 0.147675 0.146463 0.138233 0.132168 0.134194 0.134875 0.131733 0.128074 0.128063 0.129413 0.125485 0.119726 0.111735 0.102633 0.096735 0.0914553 0.0848356 0.0813816 0.08089 0.0758423 0.0707794 0.0666027 0.0601812 0.0565104 0.0527391 0.0470374 0.042192 0.0383948 0.0361269 0.0349344 0.0329706 0.0329387 0.0359586 0.0420064
255.545 0.00025 0.561578 0.828624 1.00272 0.912159 0.871776 0.776568 0.707144 0.628437 0.601196 0.569252 0.54921 0.523662 0.530149 0.527131 0.507382 0.482574 0.482748 0.474309 0.465953 0.45897 0.454628 0.457897 0.457592 0.464319 0.485238 0.495922 0.505699 0.515226 0.53837 0.569448 0.595968 0.621603 0.618627 0.610079 0.591797 0.586631 0.587858 0.562142 0.543843 0.534221 0.523023 0.518356 0.508772 0.493738 0.480099 0.462418 0.44338 0.418525 0.412748 0.413225 0.398033 0.372371 0.339065 0.315292 0.303976 0.280887 0.26205 0.248449 0.230549 0.223507 0.21167 0.199807 0.186964 0.172378 0.162836 0.152324 0.147982 0.146617 0.138363 0.132226 0.133948 0.134673 0.131591 0.127948 0.127772 0.129114 0.12525 0.119606 0.111888 0.102725 0.0967125 0.0915406 0.0850848 0.0814212 0.0806897 0.0757118 0.0708049 0.0666544 0.0601595 0.0564956 0.0528024 0.0472147 0.0422847 0.0384014 0.0361816 0.0350388 0.0330952 0.0329916 0.0360454 0.0421199
255.5475 0.00025 0.559555 0.826245 1.00113 0.911556 0.870592 0.776466 0.709077 0.631621 0.602584 0.568758 0.548486 0.522341 0.529078 0.526117 0.506274 0.482506 0.483133 0.47528 0.466599 0.459522 0.45511 0.4587 0.459651 0.465325 0.486136 0.498624 0.508156 0.517142 0.538024 0.568517 0.595992 0.622538 0.619355 0.609909 0.590068 0.584893 0.586874 0.562221 0.543991 0.533511 0.521902 0.517152 0.5088 0.493972 0.479521 0.461951 0.444102 0.418873 0.412342 0.413755 0.39939 0.373483 0.33966 0.315924 0.304821 0.282275 0.263129 0.249157 0.230686 0.223208 0.211822 0.200048 0.187321 0.172353 0.162836 0.152713 0.148276 0.146756 0.138519 0.132302 0.1337 0.134448 0.131443 0.127836 0.127513 0.128813 0.125014 0.119457 0.112033 0.102824 0.0967009 0.0916154 0.0853362 0.0814678 0.0804819 0.0755746 0.0708268 0.0667058 0.0601494 0.0564877 0.0528616 0.0473908 0.0423877 0.0384072 0.0362295 0.0351413 0.0332217 0.0330477 0.0361332 0.0422353
255.55 0.00025 0.557461 0.823873 0.999309 0.910668 0.869626 0.776143 0.710475 0.634689 0.604129 0.568484 0.547648 0.521006 0.528174 0.525183 0.505117 0.48242 0.483496 0.476185 0.467329 0.460171 0.455769 0.459579 0.461655 0.466281 0.486857 0.501204 0.510592 0.519191 0.537789 0.567662 0.596076 0.623374 0.619967 0.609796 0.5885 0.583212 0.585716 0.562229 0.544056 0.532826 0.52084 0.515872 0.508671 0.494226 0.479099 0.461522 0.444747 0.419313 0.412053 0.414174 0.400623 0.374655 0.340354 0.316605 0.305684 0.283632 0.264145 0.249865 0.230897 0.222903 0.211967 0.200285 0.187673 0.172361 0.162834 0.153059 0.148557 0.146877 0.138703 0.132403 0.133464 0.134202 0.131285 0.127732 0.127285 0.128509 0.124782 0.119285 0.112167 0.102932 0.0966989 0.0916847 0.0855989 0.0815273 0.0802682 0.075429 0.0708415 0.0667531 0.0601501 0.0564871 0.0529158 0.047566 0.0425046 0.0384141 0.0362696 0.0352426 0.0333513 0.0331066 0.0362211 0.0423524
255.5525 0.00025 0.555308 0.82156 0.997256 0.909427 0.868922 0.775727 0.711362 0.637568 0.605822 0.568467 0.546721 0.519634 0.527396 0.524341 0.503964 0.482306 0.483839 0.477016 0.468157 0.46091 0.456638 0.460594 0.463569 0.467212 0.487453 0.503651 0.51297 0.521318 0.537702 0.566911 0.596223 0.624088 0.620455 0.609756 0.587119 0.581605 0.584385 0.562125 0.544036 0.53219 0.519832 0.514516 0.508364 0.494472 0.478847 0.461145 0.445299 0.419826 0.411906 0.414498 0.401719 0.375871 0.341157 0.317338 0.306557 0.284929 0.265089 0.250553 0.231181 0.222597 0.21209 0.200513 0.188023 0.172418 0.162851 0.153367 0.148819 0.146972 0.138918 0.13253 0.133249 0.133944 0.131118 0.12763 0.127087 0.128206 0.124561 0.119094 0.112283 0.103044 0.096705 0.0917513 0.0858741 0.0815995 0.0800463 0.0752704 0.0708464 0.0667907 0.0601582 0.0564897 0.0529633 0.0477399 0.0426374 0.0384238 0.0363002 0.0353443 0.0334867 0.0331688 0.0363084 0.0424696
255.555 0.00025 0.553119 0.819364 0.994955 0.907783 0.868453 0.775308 0.711754 0.640182 0.607623 0.568707 0.545728 0.518235 0.526699 0.523588 0.502864 0.482171 0.484152 0.477757 0.469097 0.461726 0.457725 0.461768 0.465372 0.468154 0.487958 0.505969 0.51526 0.523447 0.537798 0.566299 0.596437 0.624661 0.620823 0.609811 0.585951 0.580073 0.582881 0.561866 0.543935 0.531612 0.518881 0.513106 0.507875 0.494677 0.478768 0.460832 0.445746 0.420384 0.411918 0.414745 0.402674 0.377112 0.342072 0.31813 0.307439 0.286151 0.265966 0.251211 0.231525 0.222297 0.212196 0.200732 0.188375 0.172536 0.162896 0.153632 0.149051 0.147039 0.139161 0.132673 0.133047 0.13368 0.13095 0.127528 0.126918 0.127912 0.124349 0.118883 0.112375 0.103159 0.09672 0.0918142 0.0861561 0.0816807 0.0798147 0.0750971 0.0708437 0.0668186 0.0601694 0.0564903 0.0530034 0.0479096 0.0427843 0.0384386 0.036322 0.0354448 0.0336262 0.0332329 0.0363937 0.0425857
255.5575 0.00025 0.550904 0.817308 0.992473 0.905703 0.868168 0.77502 0.711729 0.642453 0.609482 0.569209 0.544681 0.516801 0.526047 0.522912 0.501863 0.482036 0.484426 0.478394 0.470154 0.462609 0.459018 0.463091 0.467083 0.469141 0.488393 0.508143 0.517448 0.525489 0.538076 0.565857 0.596714 0.625089 0.621076 0.609967 0.585021 0.578618 0.5812 0.561407 0.543759 0.531104 0.518007 0.511673 0.507209 0.494808 0.478854 0.460599 0.446088 0.420966 0.412105 0.41494 0.403477 0.378356 0.343107 0.318997 0.308322 0.287292 0.26679 0.251845 0.231928 0.222012 0.212281 0.200938 0.188727 0.172716 0.162964 0.153845 0.14925 0.147083 0.139432 0.132826 0.13285 0.133401 0.130786 0.127427 0.126774 0.127623 0.12414 0.118653 0.112439 0.103279 0.096748 0.0918688 0.0864413 0.0817732 0.0795783 0.0749119 0.0708333 0.0668381 0.0601843 0.0564908 0.0530365 0.0480707 0.0429423 0.0384594 0.0363337 0.0355392 0.0337675 0.0332991 0.0364775 0.0427015
255.56 0.00025 0.548669 0.81544 0.989815 0.903156 0.867984 0.774984 0.711375 0.644318 0.611303 0.569965 0.5436 0.515342 0.525405 0.52229 0.501009 0.481934 0.48466 0.478913 0.471304 0.463551 0.46049 0.464537 0.468736 0.470185 0.488775 0.51016 0.519552 0.527357 0.538522 0.565613 0.597054 0.625388 0.621224 0.610214 0.58434 0.577249 0.579346 0.5607 0.54352 0.530672 0.517215 0.510235 0.506368 0.494844 0.479093 0.460465 0.446332 0.421551 0.412466 0.415095 0.404124 0.379581 0.344253 0.319947 0.309206 0.288358 0.26758 0.252453 0.23238 0.221742 0.212336 0.201123 0.189073 0.172951 0.16306 0.154019 0.149417 0.147102 0.139731 0.132994 0.132664 0.133101 0.130616 0.12733 0.126653 0.127335 0.12393 0.118406 0.112475 0.103411 0.0967947 0.0919129 0.0867301 0.0818823 0.0793445 0.0747186 0.0708145 0.0668499 0.0602068 0.0564972 0.0530653 0.0482205 0.0431091 0.0384853 0.0363333 0.0356249 0.0339105 0.0333676 0.0365607 0.0428187
255.5625 0.00025 0.546424 0.813803 0.987048 0.900133 0.867779 0.77529 0.71083 0.645726 0.613016 0.570955 0.542523 0.513863 0.524748 0.521684 0.500335 0.481896 0.484864 0.479312 0.472525 0.464561 0.462104 0.466077 0.470394 0.471298 0.489133 0.511998 0.521609 0.529011 0.539114 0.565591 0.597446 0.625565 0.621277 0.610538 0.583917 0.575971 0.577337 0.559717 0.54322 0.530301 0.516492 0.508805 0.505366 0.494773 0.479462 0.460447 0.446493 0.422117 0.412995 0.41523 0.40462 0.380765 0.345507 0.320992 0.31009 0.289351 0.268342 0.253033 0.232878 0.221506 0.212356 0.201281 0.189407 0.173246 0.163198 0.154175 0.149556 0.147099 0.140053 0.13318 0.132496 0.132788 0.130439 0.127231 0.126551 0.127051 0.123724 0.118155 0.112485 0.103556 0.0968578 0.0919487 0.0870242 0.0820085 0.0791157 0.0745196 0.0707897 0.066853 0.0602354 0.0565135 0.0530945 0.0483599 0.0432833 0.0385157 0.0363207 0.0357029 0.0340561 0.0334393 0.0366436 0.0429364
255.565 0.00025 0.544195 0.81242 0.984245 0.896646 0.867456 0.775983 0.710228 0.646654 0.614536 0.572128 0.541503 0.512399 0.524066 0.52105 0.499858 0.481957 0.485051 0.479601 0.473792 0.465655 0.463796 0.467668 0.472128 0.472489 0.489501 0.513635 0.523644 0.530432 0.539808 0.565809 0.597871 0.625626 0.621255 0.610929 0.583739 0.57478 0.575189 0.558452 0.542858 0.529976 0.515832 0.507402 0.504228 0.494597 0.479932 0.460547 0.446587 0.422651 0.413683 0.415369 0.404972 0.381895 0.346866 0.322138 0.310957 0.29026 0.269075 0.253589 0.233425 0.221317 0.212345 0.201416 0.189731 0.173604 0.163375 0.154315 0.14966 0.147076 0.140395 0.133377 0.132342 0.132472 0.130262 0.127125 0.126462 0.126772 0.123524 0.117912 0.112473 0.103704 0.0969354 0.0919794 0.0873267 0.0821512 0.0788912 0.074315 0.0707617 0.0668499 0.0602687 0.0565377 0.0531257 0.0484902 0.0434646 0.0385535 0.0362988 0.0357736 0.0342052 0.033515 0.0367263 0.0430537
255.5675 0.00025 0.54201 0.811313 0.98145 0.892714 0.866927 0.777078 0.709726 0.647115 0.615777 0.573398 0.540594 0.510975 0.523358 0.520352 0.499585 0.482152 0.485232 0.479794 0.475082 0.46685 0.465501 0.469283 0.474 0.473763 0.489897 0.515044 0.52567 0.531628 0.540553 0.566279 0.598313 0.625593 0.621188 0.611363 0.583775 0.573665 0.572906 0.556903 0.54243 0.529686 0.515249 0.506058 0.502977 0.494318 0.480464 0.460766 0.446638 0.423151 0.414518 0.415531 0.405191 0.382956 0.348321 0.323391 0.311803 0.291084 0.269778 0.254119 0.234014 0.221183 0.212309 0.201525 0.190046 0.174024 0.163585 0.154431 0.149718 0.147034 0.140753 0.133583 0.132197 0.132154 0.130093 0.127016 0.12638 0.126498 0.12332 0.117669 0.112437 0.103854 0.0970324 0.0920041 0.0876344 0.082312 0.0786754 0.0741072 0.0707286 0.0668415 0.0603042 0.0565667 0.0531583 0.0486109 0.0436528 0.0386023 0.0362703 0.0358354 0.0343576 0.0335958 0.0368099 0.0431709
255.57 0.00025 0.539894 0.81046 0.978748 0.888388 0.866118 0.778562 0.709444 0.647143 0.616652 0.574653 0.539826 0.509614 0.52263 0.519556 0.499517 0.482515 0.48542 0.479921 0.476353 0.468148 0.46715 0.470908 0.47607 0.475124 0.490333 0.516203 0.527672 0.532647 0.541293 0.566988 0.598774 0.625502 0.621108 0.611806 0.583988 0.572614 0.570502 0.555091 0.541926 0.529404 0.514743 0.504788 0.501633 0.493937 0.481026 0.461102 0.44667 0.423615 0.415478 0.415734 0.405297 0.383936 0.349854 0.324743 0.312625 0.291835 0.270456 0.254619 0.234626 0.2211 0.212243 0.201604 0.190345 0.174504 0.163828 0.154534 0.149731 0.146975 0.141125 0.133801 0.132062 0.131833 0.129925 0.12691 0.126311 0.126233 0.123109 0.117418 0.11237 0.104006 0.0971546 0.0920184 0.0879398 0.0824926 0.0784757 0.0738991 0.0706872 0.066825 0.0603393 0.0566018 0.053194 0.048723 0.043848 0.0386635 0.0362361 0.0358879 0.0345146 0.0336834 0.0368956 0.0432881
255.5725 0.00025 0.537881 0.809848 0.976201 0.883743 0.864951 0.780391 0.709494 0.646788 0.617112 0.575778 0.53922 0.50834 0.521863 0.518644 0.499649 0.483071 0.485634 0.480013 0.477568 0.469548 0.468684 0.472536 0.478376 0.476608 0.490825 0.517106 0.529608 0.533558 0.542001 0.567915 0.599245 0.625381 0.621044 0.612236 0.584343 0.571628 0.568023 0.553061 0.541333 0.529099 0.514296 0.503598 0.500222 0.493463 0.481581 0.461546 0.44671 0.424045 0.416536 0.415985 0.405299 0.384832 0.351445 0.326189 0.313428 0.292541 0.27112 0.255091 0.235252 0.221062 0.212144 0.201658 0.190626 0.17504 0.164113 0.154646 0.149705 0.146897 0.141503 0.134031 0.13194 0.131511 0.129755 0.126808 0.126255 0.125981 0.122898 0.117174 0.112278 0.104157 0.0972988 0.0920225 0.0882369 0.0826901 0.0782938 0.0736907 0.0706348 0.0667999 0.0603742 0.0566459 0.0532367 0.0488285 0.0440492 0.0387382 0.0361976 0.0359315 0.0346763 0.0337783 0.0369829 0.0434051
255.575 0.00025 0.535975 0.809474 0.973855 0.878834 0.863407 0.782494 0.709925 0.646153 0.617127 0.576686 0.538797 0.50719 0.521054 0.517618 0.499964 0.483851 0.485894 0.480104 0.478701 0.471038 0.470054 0.474166 0.480922 0.478259 0.491381 0.517775 0.531419 0.534415 0.542677 0.569018 0.599707 0.625249 0.621019 0.612638 0.584808 0.570708 0.565515 0.550857 0.540639 0.528737 0.513896 0.502501 0.498781 0.49291 0.482106 0.462083 0.446779 0.424451 0.417662 0.416285 0.405218 0.38564 0.353075 0.327719 0.314206 0.293209 0.271769 0.255548 0.23589 0.221076 0.212023 0.201689 0.190884 0.175617 0.164439 0.154774 0.149636 0.146799 0.141883 0.134273 0.13183 0.131194 0.129585 0.126706 0.126204 0.125747 0.122698 0.11695 0.112173 0.104299 0.0974577 0.0920183 0.0885219 0.0828983 0.078122 0.0734803 0.0705731 0.0667693 0.0604092 0.0567007 0.0532883 0.0489282 0.0442556 0.0388286 0.0361575 0.0359651 0.0348421 0.0338806 0.037071 0.0435211
255.5775 0.00025 0.5342 0.809368 0.971696 0.873741 0.861462 0.784787 0.710784 0.645348 0.616683 0.577281 0.538557 0.506194 0.52018 0.516484 0.500436 0.484877 0.486222 0.480213 0.479727 0.472592 0.471219 0.475778 0.483698 0.48013 0.492 0.518247 0.533031 0.535243 0.543335 0.57024 0.60014 0.625136 0.621065 0.613 0.585341 0.569852 0.563012 0.548518 0.539831 0.528304 0.513542 0.501511 0.497338 0.492293 0.482582 0.46269 0.446901 0.42485 0.41883 0.416639 0.405078 0.386368 0.354721 0.329323 0.314954 0.293842 0.272399 0.255997 0.236536 0.221151 0.211883 0.201701 0.191125 0.176228 0.1648 0.154924 0.149534 0.146685 0.142265 0.134531 0.131729 0.130885 0.129416 0.126605 0.126156 0.125531 0.122505 0.116741 0.112059 0.104437 0.0976321 0.0920079 0.0887899 0.0831108 0.0779562 0.0732679 0.0705011 0.0667321 0.0604397 0.0567621 0.0533473 0.0490215 0.0444639 0.0389343 0.0361163 0.0359858 0.0350091 0.0339894 0.0371593 0.0436364
255.58 0.00025 0.532565 0.809493 0.96977 0.868551 0.859142 0.787186 0.71208 0.644466 0.615793 0.577508 0.538497 0.50536 0.519224 0.515273 0.501025 0.486163 0.486639 0.480356 0.48063 0.474201 0.472156 0.477361 0.48667 0.482268 0.492677 0.518575 0.534398 0.536075 0.544032 0.571524 0.600527 0.625068 0.621202 0.613297 0.585892 0.569049 0.560551 0.546081 0.538894 0.52778 0.513226 0.500628 0.495915 0.491614 0.482984 0.463336 0.44709 0.425252 0.420019 0.417052 0.404904 0.387024 0.356371 0.330993 0.315682 0.29445 0.273004 0.256427 0.237176 0.221277 0.211727 0.201696 0.191348 0.176862 0.165187 0.155099 0.149415 0.14656 0.142638 0.134805 0.131638 0.130583 0.129245 0.126507 0.126112 0.125333 0.122308 0.116538 0.111936 0.10457 0.097825 0.091997 0.089037 0.0833275 0.0778015 0.0730552 0.070415 0.0666829 0.0604606 0.056828 0.0534142 0.0491076 0.0446697 0.039053 0.036074 0.0359926 0.0351755 0.0341049 0.0372489 0.0437529