255.5025 0.00025 -0.0187562 -0.0209917 -0.00707907 0.0272082 0.0413439 0.051291 0.0449444 0.0352998 0.0390844 0.0413111 0.0330448 0.0191962 0.0185821 0.0162893 -0.00134787 -0.0205549 -0.0300394 -0.0244156 -0.0210014 -0.0187153 -0.0209178 -0.0226204 -0.0151124 -0.0120971 -0.0186516 -0.0222792 -0.0207841 -0.0222376 -0.0206488 -0.0140936 -0.00949255 -0.0145254 -0.0202978 -0.0190681 -0.0250931 -0.0309883 -0.0230775 -0.0149354 -0.011978 -0.00544995 -0.00113776 -0.00526748 -0.0055204 0.00140204 0.0107869 0.0251647 0.034923 0.0383206 0.0392134 0.0326783 0.0305229 0.0297479 0.0253985 0.0188947 0.0135735 0.0106725 0.00583085 0.000295066 0.000278172 0.00139963 0.00177907 0.00365991 0.00511444 0.00224156 0.00287666 -0.00105459 -0.00343283 -0.00669915 -0.00881196 -0.00848076 -0.00720873 -0.00425391 -0.000537441 0.000704144 0.00112921 -0.00084464 -0.00397604 -0.00609167 -0.00822429 -0.00937353 -0.0102167 -0.0108127 -0.0117825 -0.0146204 -0.0164112 -0.0154189 -0.0120182 -0.00990226 -0.00958869 -0.00931306 -0.0074232 -0.00616953 -0.00601888 -0.00610156 -0.00609646 -0.00492093 -0.00262744 -0.00109906 -0.00235658 -0.0030584
255.505 0.00025 -0.0185737 -0.0210262 -0.00643926 0.0289207 0.0427237 0.0515146 0.0440916 0.0352912 0.0390177 0.0416976 0.0336913 0.0190514 0.017961 0.016654 -0.00037805 -0.0196243 -0.0293142 -0.0243048 -0.0211205 -0.0182605 -0.0201302 -0.0218333 -0.0150488 -0.0120165 -0.0182439 -0.022683 -0.0214743 -0.0221777 -0.0201373 -0.0133676 -0.00880771 -0.0140295 -0.0198057 -0.0190458 -0.0251729 -0.0305743 -0.0234534 -0.0152085 -0.0117341 -0.00533237 -0.00129632 -0.00520446 -0.00552197 0.0015436 0.010825 0.024882 0.0345732 0.038529 0.0398457 0.0329266 0.0302885 0.0297038 0.0257681 0.0196792 0.0143619 0.0110112 0.00603251 0.000388142 0.00041541 0.00120389 0.00152951 0.00358958 0.00497308 0.00174525 0.00237061 -0.00113209 -0.00343873 -0.00677319 -0.00895955 -0.00852524 -0.00725135 -0.00435192 -0.000715653 0.000548298 0.0010813 -0.000836853 -0.00394678 -0.00615617 -0.00815238 -0.00933943 -0.0103623 -0.0110159 -0.0119018 -0.0146129 -0.016457 -0.0154879 -0.0120021 -0.00981225 -0.00954809 -0.00937568 -0.00751227 -0.0062044 -0.0060312 -0.00613348 -0.006169 -0.0050189 -0.00269546 -0.00109101 -0.00232206 -0.00306526
255.5075 0.00025 -0.0184871 -0.0210726 -0.00570979 0.0306338 0.044301 0.0517031 0.0431963 0.0353563 0.0390831 0.0421671 0.0342166 0.0189227 0.0171867 0.0169097 0.000553359 -0.018839 -0.0286035 -0.024187 -0.0212871 -0.0180485 -0.0194891 -0.0211921 -0.0151061 -0.0119663 -0.0178401 -0.0230132 -0.0221572 -0.0221638 -0.0196009 -0.0126167 -0.00824237 -0.0135916 -0.0192935 -0.0189812 -0.0251912 -0.0300521 -0.0237716 -0.0154794 -0.0114545 -0.00519532 -0.00143251 -0.00502433 -0.00531982 0.00185472 0.0110298 0.0247565 0.034324 0.0387648 0.0405329 0.0333317 0.030164 0.029657 0.0261022 0.020467 0.0151938 0.0113923 0.00628011 0.000485415 0.000526519 0.00102635 0.00128743 0.00351412 0.004849 0.00129903 0.00187095 -0.0012272 -0.00345259 -0.00686882 -0.00911899 -0.00857368 -0.0073141 -0.00447674 -0.000918096 0.000356664 0.00100249 -0.000851269 -0.00392294 -0.00622967 -0.00809054 -0.00930012 -0.0105013 -0.011236 -0.0120584 -0.0146432 -0.0165332 -0.0155815 -0.012019 -0.0097515 -0.00952222 -0.00945224 -0.00763082 -0.00627169 -0.00607031 -0.00618944 -0.0062662 -0.00514223 -0.00279123 -0.00111063 -0.00231066 -0.00309663
255.51 0.00025 -0.0184527 -0.02114 -0.00493682 0.0323408 0.0460412 0.0518128 0.0422599 0.035464 0.0392683 0.0427097 0.0346072 0.018845 0.016332 0.0171258 0.00150708 -0.0181354 -0.0279082 -0.0240458 -0.0214209 -0.0180236 -0.0189591 -0.0206592 -0.0152096 -0.0118821 -0.0174397 -0.0232748 -0.0228203 -0.0221693 -0.0190287 -0.0118438 -0.00778387 -0.013197 -0.0187696 -0.018906 -0.0251495 -0.0294558 -0.0240221 -0.0157302 -0.0111801 -0.00510753 -0.00160662 -0.00481055 -0.00498886 0.00223882 0.0113231 0.0247068 0.0341129 0.0389551 0.0411907 0.0338108 0.0300995 0.0295795 0.0263835 0.0212351 0.016055 0.0118155 0.00656377 0.00058756 0.000609674 0.000866144 0.0010451 0.00341838 0.00471968 0.000885027 0.00135752 -0.0013512 -0.00347181 -0.00696958 -0.00927114 -0.00862267 -0.00739619 -0.00462139 -0.00112934 0.000149927 0.000904841 -0.000879676 -0.00389472 -0.00630408 -0.00803923 -0.00925664 -0.0106229 -0.0114549 -0.0122344 -0.0146885 -0.0166072 -0.0156782 -0.0120505 -0.00970126 -0.00949389 -0.00952314 -0.00775609 -0.00634984 -0.00611768 -0.00625295 -0.00637239 -0.00527503 -0.00289871 -0.00114334 -0.00230778 -0.0031373
255.5125 0.00025 -0.0184348 -0.0212252 -0.00411831 0.0340349 0.0479185 0.0518947 0.0413487 0.0355997 0.0395626 0.0433561 0.0349054 0.0188113 0.0154302 0.0173183 0.0024759 -0.0175041 -0.0272614 -0.0238918 -0.0214869 -0.0181579 -0.0185575 -0.0202302 -0.0153431 -0.0117389 -0.017051 -0.023455 -0.0234537 -0.0221855 -0.018428 -0.0110627 -0.00744101 -0.0128673 -0.0182445 -0.0188223 -0.0250331 -0.0287961 -0.0241677 -0.0159339 -0.0109304 -0.00507695 -0.00182281 -0.00457591 -0.0045486 0.00266205 0.0116878 0.0247134 0.033936 0.0390873 0.0417922 0.0343382 0.0300923 0.0294766 0.0266057 0.0219614 0.0169331 0.0122903 0.00689457 0.000711197 0.000674062 0.000730731 0.000808874 0.00329484 0.00457322 0.000490538 0.000822263 -0.00151536 -0.00349276 -0.00706207 -0.00940443 -0.00866517 -0.00749223 -0.00478232 -0.00134029 -6.0541e-05 0.000799043 -0.000914594 -0.00385658 -0.00637464 -0.00799331 -0.00920351 -0.0107158 -0.0116576 -0.0124143 -0.0147374 -0.0166736 -0.0157789 -0.0120942 -0.00966091 -0.00946159 -0.009586 -0.00788252 -0.00643298 -0.00616794 -0.00631833 -0.00648232 -0.00541337 -0.00301406 -0.0011851 -0.00230963 -0.0031824
255.515 0.00025 -0.0184119 -0.0213215 -0.00324455 0.0357392 0.0499395 0.0519984 0.0405105 0.0357744 0.0399396 0.0440954 0.0351462 0.0188083 0.0145212 0.017499 0.00345688 -0.0169086 -0.0266794 -0.02373 -0.0214597 -0.0184061 -0.0182908 -0.0198918 -0.0155024 -0.0115307 -0.0166894 -0.0235571 -0.0240472 -0.0221856 -0.0177894 -0.0102783 -0.00721646 -0.0126114 -0.0177142 -0.0187258 -0.0248421 -0.0280878 -0.0241903 -0.0160917 -0.0107336 -0.00510992 -0.00208094 -0.00432133 -0.00401184 0.00310664 0.0121103 0.0247714 0.0338034 0.0391679 0.0423321 0.0349077 0.0301521 0.0293655 0.0267749 0.0226239 0.0178093 0.0128221 0.00728459 0.000863301 0.000720243 0.000622237 0.000581766 0.00313817 0.00440432 0.000113276 0.000274016 -0.001717 -0.00350781 -0.00713839 -0.00951516 -0.00869419 -0.00759336 -0.00495623 -0.00154901 -0.000273786 0.000685415 -0.000950624 -0.00381006 -0.00644388 -0.00795066 -0.00914087 -0.010784 -0.0118447 -0.0125955 -0.0147924 -0.0167395 -0.0158836 -0.0121473 -0.00963115 -0.00942649 -0.00964181 -0.00801019 -0.00652036 -0.00621736 -0.00637985 -0.00658942 -0.00555254 -0.00313327 -0.00123228 -0.0023138 -0.00322854
255.5175 0.00025 -0.0183625 -0.0213945 -0.0023219 0.0374442 0.0520814 0.0521518 0.0397947 0.0359885 0.040371 0.0448855 0.0353595 0.0188132 0.0136322 0.0176577 0.00442684 -0.0163229 -0.0261721 -0.0235664 -0.0213448 -0.0187265 -0.0181669 -0.0196221 -0.0156924 -0.0112591 -0.0163559 -0.0235942 -0.0245985 -0.022143 -0.0171116 -0.00951278 -0.00711773 -0.0124332 -0.0171647 -0.0186182 -0.0245853 -0.0273509 -0.0240954 -0.0162219 -0.0106194 -0.0052196 -0.00238377 -0.004042 -0.00338561 0.00356733 0.0125711 0.0248675 0.0337188 0.039197 0.0428021 0.0355065 0.0302777 0.0292507 0.0268883 0.0232024 0.0186568 0.0134071 0.00772492 0.00103257 0.000737306 0.000531512 0.000360526 0.00294566 0.00421299 -0.000240461 -0.000272129 -0.00194884 -0.00352088 -0.00720763 -0.00961129 -0.00871074 -0.00769661 -0.00513737 -0.00175079 -0.000489525 0.000560937 -0.000990975 -0.00376368 -0.00651888 -0.00791799 -0.00907993 -0.010843 -0.0120265 -0.0127838 -0.0148575 -0.0168026 -0.0159845 -0.0122084 -0.00961256 -0.0093897 -0.00969053 -0.0081377 -0.0066117 -0.00626463 -0.00643399 -0.00668796 -0.00568613 -0.00325138 -0.00128129 -0.00231732 -0.00327188
255.52 0.00025 -0.0182982 -0.0214427 -0.00137995 0.0391337 0.0542972 0.0523436 0.0392254 0.0362666 0.0408346 0.0456819 0.0355652 0.0188198 0.0127999 0.0177881 0.00536778 -0.0157331 -0.0257328 -0.0234134 -0.0211624 -0.019076 -0.0181917 -0.0194002 -0.0159098 -0.0109322 -0.0160528 -0.0235748 -0.0250938 -0.0220322 -0.0164018 -0.00880042 -0.00714531 -0.012331 -0.0165924 -0.0185115 -0.0242776 -0.0266006 -0.0238916 -0.0163259 -0.0105984 -0.00541774 -0.0027303 -0.00373453 -0.00267706 0.00404803 0.0130557 0.0249962 0.0336882 0.0391879 0.0432039 0.0361254 0.0304681 0.0291386 0.0269577 0.0236965 0.0194541 0.0140401 0.00820543 0.00120375 0.000722197 0.000460138 0.000154028 0.00272133 0.00400201 -0.0005576 -0.000795495 -0.00220743 -0.00354209 -0.00727523 -0.00969404 -0.0087207 -0.00780362 -0.00532286 -0.00193985 -0.000707468 0.000420976 -0.00104121 -0.00372446 -0.00660335 -0.00790152 -0.00902661 -0.0108942 -0.0122012 -0.012979 -0.01493 -0.0168569 -0.0160798 -0.0122783 -0.00960617 -0.00935223 -0.00973107 -0.00826246 -0.00670613 -0.0063105 -0.00648137 -0.00677724 -0.00581175 -0.00336481 -0.00132926 -0.00231718 -0.0033098
255.5225 0.00025 -0.0182008 -0.0214584 -0.00044008 0.0408183 0.0565629 0.0525762 0.0388255 0.0366252 0.041322 0.0464468 0.035756 0.0188156 0.0120478 0.0178833 0.00627778 -0.0151207 -0.0253604 -0.0232717 -0.0209521 -0.0194252 -0.0183648 -0.0192109 -0.016131 -0.0105626 -0.0157671 -0.0235033 -0.0255171 -0.0218353 -0.0156689 -0.0081619 -0.00729187 -0.0123114 -0.0159942 -0.0184145 -0.0239317 -0.0258403 -0.0235788 -0.0163986 -0.0106691 -0.0057077 -0.00312571 -0.00339266 -0.00188569 0.00455534 0.0135502 0.0251568 0.0337144 0.0391455 0.043533 0.0367545 0.0307247 0.0290428 0.0269952 0.0241097 0.0201916 0.0147133 0.00871965 0.00137327 0.000672291 0.000410235 -2.9067e-05 0.00247219 0.00377877 -0.000843267 -0.00129321 -0.0024975 -0.00358115 -0.00733994 -0.00975867 -0.00872367 -0.00791749 -0.00551694 -0.00212063 -0.000928495 0.000263915 -0.00110419 -0.00369142 -0.00669324 -0.00789645 -0.00897135 -0.0109236 -0.0123568 -0.0131731 -0.0150082 -0.0169055 -0.0161734 -0.0123574 -0.00961244 -0.00931419 -0.0097629 -0.00838305 -0.00680361 -0.00635637 -0.00652505 -0.00686135 -0.00593292 -0.00347431 -0.00137484 -0.00231203 -0.00334336
255.525 0.00025 -0.0180717 -0.0214635 0.000451104 0.0424841 0.0588307 0.0528416 0.0386162 0.0370908 0.0418283 0.0471616 0.0359522 0.0188159 0.0114006 0.017946 0.0071657 -0.0144703 -0.0250286 -0.0231303 -0.0207431 -0.0197605 -0.0186769 -0.0190606 -0.0163326 -0.0101921 -0.0154895 -0.0233989 -0.0258632 -0.0215358 -0.0149095 -0.00759724 -0.00755155 -0.0123815 -0.0153742 -0.0183284 -0.0235679 -0.0250835 -0.02316 -0.016444 -0.0108378 -0.00609648 -0.00357785 -0.00302613 -0.00102869 0.00508559 0.0140382 0.0253471 0.0337904 0.0390659 0.0437837 0.037384 0.0310389 0.0289675 0.0270051 0.0244423 0.0208624 0.0154204 0.00927203 0.0015463 0.000593044 0.000391911 -0.000181165 0.00220144 0.00353807 -0.00111444 -0.00177591 -0.00282573 -0.00364016 -0.00739433 -0.00980027 -0.00871642 -0.00803659 -0.00572322 -0.00229922 -0.00115339 8.97439e-05 -0.00117693 -0.00365709 -0.00678085 -0.00789157 -0.00890224 -0.0109232 -0.0124901 -0.0133631 -0.0150955 -0.0169547 -0.0162659 -0.0124431 -0.00962926 -0.00927549 -0.00978617 -0.0084977 -0.00690303 -0.00640276 -0.00656759 -0.00694367 -0.00605274 -0.00358189 -0.00141859 -0.00230361 -0.00337559
255.5275 0.00025 -0.0179291 -0.0214624 0.00124089 0.0440962 0.0610387 0.0531238 0.0385868 0.0376719 0.0423404 0.0477899 0.0361465 0.0188326 0.0108654 0.017969 0.00802497 -0.0137819 -0.0247241 -0.0229813 -0.0205693 -0.0200887 -0.0191006 -0.0189585 -0.0164824 -0.0098722 -0.0152083 -0.0232841 -0.0261205 -0.0211154 -0.0141161 -0.00710106 -0.00791587 -0.0125344 -0.0147314 -0.018238 -0.0232044 -0.0243327 -0.0226432 -0.0164633 -0.0110988 -0.00656965 -0.00407536 -0.00263982 -0.000110336 0.0056482 0.0145136 0.0255678 0.033915 0.0389645 0.0439689 0.0380159 0.0314043 0.0289181 0.0269951 0.024697 0.0214609 0.0161621 0.00987846 0.00173391 0.000502554 0.000408086 -0.000303378 0.00191116 0.00327409 -0.00137871 -0.00224602 -0.00319099 -0.00371726 -0.00743707 -0.00981789 -0.00869566 -0.00815457 -0.0059396 -0.00247529 -0.00137671 -9.73431e-05 -0.00125411 -0.00361444 -0.00685957 -0.00788412 -0.0088237 -0.0109054 -0.01261 -0.0135508 -0.0151937 -0.0170041 -0.0163532 -0.0125333 -0.00965555 -0.00923797 -0.00980317 -0.00860671 -0.00700581 -0.00645069 -0.00660972 -0.00702448 -0.00617176 -0.00369083 -0.00146491 -0.00229703 -0.00340902
255.53 0.00025 -0.0177672 -0.021435 0.00192373 0.045635 0.0631293 0.053397 0.0387356 0.0383722 0.0428567 0.0483087 0.0363198 0.0188735 0.0104394 0.0179404 0.00885555 -0.0130605 -0.0244292 -0.0228159 -0.0204484 -0.0204222 -0.0195976 -0.01892 -0.0165546 -0.00964059 -0.0149199 -0.0231828 -0.0262821 -0.020577 -0.0133002 -0.00669325 -0.0083811 -0.0127642 -0.0140707 -0.0181301 -0.022844 -0.0235824 -0.0220444 -0.0164573 -0.0114431 -0.00712177 -0.00461118 -0.00223473 0.000867774 0.0062444 0.0149628 0.0258075 0.0340871 0.0388574 0.0440959 0.0386418 0.0318165 0.0289043 0.0269831 0.0248783 0.021982 0.0169311 0.010541 0.00193873 0.00040728 0.000456679 -0.000398295 0.00159855 0.00298248 -0.00163695 -0.00269856 -0.0035852 -0.00381692 -0.00747268 -0.00981214 -0.00865974 -0.00826689 -0.00616487 -0.00264805 -0.00159603 -0.000296448 -0.00133394 -0.00355998 -0.00692972 -0.00788089 -0.00874756 -0.0108807 -0.0127191 -0.0137319 -0.0152953 -0.0170453 -0.0164298 -0.0126252 -0.00969081 -0.00920271 -0.0098162 -0.00871197 -0.00711379 -0.00649951 -0.00664837 -0.00709882 -0.00628673 -0.00380126 -0.0015161 -0.00229417 -0.00344331
255.5325 0.00025 -0.0175964 -0.0213893 0.00249919 0.0470917 0.0650698 0.0536851 0.0390499 0.0391745 0.0433779 0.048693 0.0364468 0.0189528 0.0101183 0.0178592 0.00965082 -0.0123174 -0.0241353 -0.0226305 -0.020394 -0.0207633 -0.020129 -0.0189507 -0.016536 -0.00951396 -0.0146287 -0.0231012 -0.0263408 -0.0199248 -0.0124782 -0.0063741 -0.00892288 -0.0130522 -0.0133968 -0.0179988 -0.0225031 -0.0228269 -0.0213785 -0.0164225 -0.0118511 -0.00774541 -0.00518294 -0.00181339 0.001906 0.00687438 0.0153798 0.0260614 0.0343047 0.0387619 0.044166 0.0392526 0.0322765 0.0289388 0.0269842 0.0250012 0.0224271 0.0177126 0.0112474 0.00215448 0.000305463 0.000534947 -0.00046791 0.00126683 0.00267088 -0.00188544 -0.00312515 -0.00400159 -0.00394575 -0.00750531 -0.00978416 -0.00861167 -0.00837628 -0.00639835 -0.00281878 -0.00181054 -0.000508018 -0.00141809 -0.0034952 -0.00699381 -0.00788553 -0.00867496 -0.0108457 -0.0128115 -0.0139017 -0.0153951 -0.0170774 -0.0164956 -0.0127201 -0.00973834 -0.00917273 -0.00982804 -0.0088146 -0.00722607 -0.00654849 -0.00668299 -0.00716613 -0.0063982 -0.00391348 -0.00157207 -0.00229471 -0.00347875
255.535 0.00025 -0.0174367 -0.0213254 0.00296252 0.0484568 0.0668531 0.0539807 0.0395351 0.0400645 0.0439282 0.0489716 0.0365141 0.0190787 0.00990778 0.0177374 0.0104248 -0.0115443 -0.0238161 -0.0224135 -0.0204143 -0.0211307 -0.0206761 -0.0190511 -0.0164296 -0.009477 -0.0143433 -0.0230289 -0.0262905 -0.0191584 -0.0116533 -0.0061355 -0.00951382 -0.0133899 -0.012727 -0.0178473 -0.0221967 -0.0220613 -0.0206645 -0.016361 -0.0123035 -0.00842125 -0.005783 -0.00138883 0.00299478 0.0075341 0.0157672 0.0263301 0.034558 0.038679 0.0441761 0.0398408 0.0327789 0.0290177 0.0270055 0.0250754 0.0227991 0.0184848 0.011977 0.00237665 0.000199896 0.000638477 -0.000514186 0.000921188 0.0023429 -0.0021242 -0.00352411 -0.00443806 -0.00411058 -0.00753682 -0.00973415 -0.00855858 -0.00848824 -0.00664217 -0.00299168 -0.00201955 -0.000730463 -0.0015094 -0.00342256 -0.00704986 -0.00789497 -0.00860007 -0.0107933 -0.0128858 -0.0140604 -0.015495 -0.0171048 -0.0165517 -0.0128177 -0.00979777 -0.00914821 -0.00983708 -0.0089104 -0.00733966 -0.00659944 -0.0067176 -0.00723147 -0.00650909 -0.00402705 -0.0016309 -0.00229717 -0.00351472
255.5375 0.00025 -0.0172842 -0.0212455 0.00331413 0.049696 0.0684552 0.0542613 0.0401601 0.0410045 0.0445124 0.0491498 0.0364973 0.0192471 0.00979241 0.0175729 0.0111675 -0.0107445 -0.0234601 -0.0221774 -0.0205227 -0.0215444 -0.0212178 -0.019213 -0.0162602 -0.00949677 -0.0140906 -0.0229613 -0.0261383 -0.0182903 -0.0108323 -0.00596999 -0.0101423 -0.0137776 -0.0120904 -0.0176776 -0.0219383 -0.0212916 -0.0199255 -0.0162772 -0.0127801 -0.00912049 -0.00640092 -0.000976487 0.00412649 0.00821738 0.0161258 0.0266088 0.0348371 0.0386122 0.0441329 0.0404003 0.0333094 0.0291314 0.0270486 0.0251121 0.0230958 0.0192249 0.0127121 0.00260711 9.70109e-05 0.000772802 -0.000538691 0.000564589 0.00199686 -0.00235518 -0.00389471 -0.00488363 -0.00431077 -0.00757197 -0.00966537 -0.00850453 -0.00860616 -0.00690088 -0.00317591 -0.00222595 -0.000965562 -0.00161238 -0.00334499 -0.00709886 -0.00790865 -0.00852379 -0.0107277 -0.0129478 -0.0142148 -0.0155998 -0.0171311 -0.0165977 -0.0129121 -0.00986445 -0.0091259 -0.00984008 -0.00899697 -0.00745502 -0.00665489 -0.00675513 -0.00729767 -0.00662089 -0.00414194 -0.00169172 -0.00229999 -0.00354907
255.54 0.00025 -0.0171536 -0.021149 0.00357176 0.050817 0.0698648 0.0545072 0.0408965 0.0419772 0.0451391 0.0492435 0.0363859 0.0194533 0.00976971 0.0173786 0.0118772 -0.00992375 -0.023054 -0.0219145 -0.0207 -0.0220031 -0.0217324 -0.0194187 -0.0160615 -0.00953358 -0.0138994 -0.0228985 -0.0258873 -0.0173354 -0.010017 -0.00587103 -0.0107936 -0.014206 -0.0115026 -0.0174816 -0.0217213 -0.020516 -0.0191704 -0.0161586 -0.0132535 -0.00981753 -0.00702206 -0.000572605 0.00530033 0.00892361 0.0164623 0.0269008 0.0351484 0.0385818 0.0440554 0.0409303 0.0338637 0.0292755 0.0271207 0.0251243 0.0233231 0.019925 0.0134462 0.00284944 1.91692e-06 0.000943226 -0.00053428 0.000205918 0.00163595 -0.00258008 -0.00423897 -0.00533113 -0.00454418 -0.00761475 -0.00957875 -0.00844561 -0.00872537 -0.00717285 -0.00337397 -0.00243025 -0.00121071 -0.00172706 -0.00326162 -0.00713988 -0.00792885 -0.00845106 -0.0106546 -0.0129987 -0.0143652 -0.0157101 -0.0171586 -0.0166338 -0.0130007 -0.00993538 -0.00910434 -0.00983866 -0.00907752 -0.00757416 -0.00671489 -0.00679382 -0.00736237 -0.00673238 -0.00425895 -0.00175562 -0.00230403 -0.00358205
255.5425 0.00025 -0.0170334 -0.0210339 0.00374077 0.0518135 0.0710643 0.0547087 0.0417088 0.0429649 0.0458189 0.0492865 0.0361478 0.0196683 0.00981707 0.0171555 0.0125416 -0.00909198 -0.0225897 -0.0216264 -0.0209302 -0.0225077 -0.022219 -0.0196676 -0.015867 -0.00955025 -0.0137845 -0.0228343 -0.0255401 -0.0163094 -0.00920567 -0.00582802 -0.0114395 -0.0146606 -0.010981 -0.0172624 -0.0215464 -0.0197416 -0.018428 -0.0160207 -0.013721 -0.010513 -0.00764748 -0.000180731 0.00650048 0.00965073 0.0167816 0.0272037 0.0354874 0.0385922 0.0439498 0.0414178 0.0344362 0.0294492 0.0272252 0.0251264 0.023496 0.0205809 0.0141714 0.00311462 -7.80185e-05 0.00115143 -0.000495601 -0.00014374 0.0012672 -0.00279646 -0.00456414 -0.00578298 -0.00481075 -0.00766604 -0.00947412 -0.00837716 -0.00884019 -0.00745112 -0.00358481 -0.00263272 -0.00146398 -0.00185392 -0.00317411 -0.00717229 -0.0079572 -0.00838305 -0.0105752 -0.0130353 -0.0145078 -0.0158234 -0.0171907 -0.0166668 -0.0130885 -0.0100125 -0.00908505 -0.00983385 -0.00915195 -0.00769331 -0.00677563 -0.00682983 -0.00742127 -0.00683997 -0.00437605 -0.00182133 -0.00230843 -0.0036129
255.545 0.00025 -0.0169254 -0.0208944 0.00385466 0.0526946 0.0720423 0.0548374 0.0425383 0.0439614 0.0465682 0.0493055 0.0357752 0.0198754 0.00992068 0.0169258 0.013159 -0.00824417 -0.022059 -0.021317 -0.021188 -0.0230548 -0.0226895 -0.0199743 -0.0157043 -0.0095229 -0.013738 -0.0227686 -0.0250969 -0.0152265 -0.00839755 -0.0058201 -0.0120484 -0.0151223 -0.0105394 -0.0170315 -0.0214127 -0.0189818 -0.0177171 -0.015877 -0.0141778 -0.011201 -0.00826838 0.000194893 0.00770235 0.0103957 0.0170917 0.0275206 0.0358514 0.0386393 0.043821 0.0418549 0.0350204 0.0296441 0.0273606 0.0251373 0.02363 0.0211843 0.014873 0.00341499 -0.000131751 0.00138835 -0.000427722 -0.000486495 0.000892827 -0.00300482 -0.0048752 -0.00623972 -0.00510742 -0.00772758 -0.00935084 -0.00829644 -0.00894376 -0.00772925 -0.00380733 -0.00283195 -0.00171867 -0.00198943 -0.00308462 -0.00719359 -0.00799374 -0.00831912 -0.0104907 -0.0130589 -0.0146428 -0.0159397 -0.0172298 -0.0166996 -0.0131783 -0.0100975 -0.00907041 -0.00982425 -0.00921582 -0.00780862 -0.00683585 -0.00686243 -0.0074739 -0.0069423 -0.00449138 -0.00188752 -0.00231249 -0.00364085
255.5475 0.00025 -0.0168315 -0.0207344 0.00391996 0.0534589 0.0727754 0.0548882 0.0433404 0.0449784 0.0473811 0.0493287 0.0352695 0.0200607 0.0100801 0.016708 0.0137198 -0.00738519 -0.0214525 -0.0209853 -0.0214573 -0.0236447 -0.0231542 -0.0203524 -0.0155788 -0.00945623 -0.0137366 -0.022708 -0.0245652 -0.0141167 -0.00760238 -0.00583457 -0.0125997 -0.0155781 -0.0101992 -0.0167935 -0.021308 -0.0182482 -0.0170489 -0.0157308 -0.0146157 -0.0118674 -0.00887616 0.000545193 0.00888496 0.0111587 0.0174041 0.0278535 0.0362358 0.0387163 0.0436766 0.042238 0.0356124 0.0298552 0.02752 0.0251657 0.0237291 0.0217203 0.0155331 0.00374551 -0.000159972 0.0016403 -0.000338212 -0.000823572 0.000513034 -0.00320501 -0.00517124 -0.006691 -0.00542753 -0.00780328 -0.00921143 -0.00820371 -0.00903324 -0.00800366 -0.00404444 -0.00302932 -0.00197049 -0.00213297 -0.00299888 -0.00720528 -0.00803867 -0.00826109 -0.0104046 -0.0130745 -0.0147747 -0.0160595 -0.0172723 -0.016726 -0.0132651 -0.0101904 -0.00906385 -0.00981188 -0.00927046 -0.00792072 -0.00689719 -0.00689354 -0.00752101 -0.00703908 -0.0046043 -0.00195325 -0.0023156 -0.00366476
255.55 0.00025 -0.0167497 -0.0205562 0.00397121 0.0541266 0.073262 0.0548463 0.0440645 0.0460264 0.0482726 0.0493927 0.0346512 0.0202022 0.0102873 0.0165134 0.0142176 -0.00651649 -0.0207651 -0.0206358 -0.0217179 -0.0242635 -0.0236108 -0.0208113 -0.0154836 -0.0093712 -0.0137582 -0.0226521 -0.023957 -0.0130077 -0.00682398 -0.00585772 -0.0130705 -0.0160152 -0.00998073 -0.0165569 -0.0212271 -0.0175495 -0.0164214 -0.0155852 -0.0150186 -0.0124932 -0.00945179 0.000876642 0.0100326 0.0119406 0.0177196 0.028198 0.0366325 0.038814 0.043523 0.0425651 0.0362117 0.0300849 0.027703 0.0252235 0.0238023 0.0221788 0.0161273 0.00409538 -0.000163423 0.00190081 -0.000226499 -0.00114907 0.000130241 -0.00339109 -0.00545147 -0.00713399 -0.00576923 -0.00789999 -0.00906017 -0.00810221 -0.00911133 -0.00827134 -0.00429591 -0.00322568 -0.00221804 -0.00228142 -0.00291773 -0.0072064 -0.0080937 -0.00821384 -0.0103208 -0.0130818 -0.0149027 -0.0161822 -0.0173179 -0.0167424 -0.0133428 -0.0102889 -0.00906768 -0.00980108 -0.00932097 -0.00803147 -0.00696167 -0.00692436 -0.00756236 -0.00713098 -0.00471553 -0.00201887 -0.00231808 -0.00368459
255.5525 0.00025 -0.0166849 -0.0203712 0.00401135 0.0547021 0.0734885 0.0547118 0.0446615 0.0471164 0.0492333 0.0495343 0.0339606 0.0202758 0.0105414 0.016345 0.0146469 -0.00563513 -0.020007 -0.0202778 -0.021957 -0.0248919 -0.0240678 -0.0213605 -0.015412 -0.00930449 -0.0137715 -0.0225827 -0.023287 -0.0119099 -0.00606483 -0.00588207 -0.0134453 -0.0164245 -0.00989967 -0.0163315 -0.0211636 -0.0168991 -0.0158305 -0.015444 -0.0153721 -0.0130617 -0.00997271 0.00120016 0.0111311 0.0127355 0.0180439 0.0285519 0.0370384 0.0389298 0.0433674 0.0428374 0.0368112 0.0303312 0.027907 0.0253203 0.0238606 0.0225493 0.016645 0.00446233 -0.000138025 0.00217293 -8.59224e-05 -0.0014535 -0.000248899 -0.00356051 -0.00571695 -0.0075709 -0.00613094 -0.00802009 -0.00890295 -0.00799705 -0.00917876 -0.00853243 -0.00456186 -0.00342175 -0.00246137 -0.00243166 -0.0028397 -0.00719484 -0.00815759 -0.00817947 -0.0102411 -0.0130789 -0.0150212 -0.0163038 -0.0173684 -0.0167565 -0.013415 -0.0103904 -0.00908015 -0.00979244 -0.00936894 -0.00814097 -0.00702923 -0.00695436 -0.00759819 -0.00721883 -0.00482592 -0.00208491 -0.00232022 -0.00370087
255.555 0.00025 -0.016624 -0.020167 0.00406435 0.055212 0.0734604 0.054466 0.0450923 0.0482606 0.0502625 0.0497588 0.0332395 0.0202509 0.0108329 0.0162001 0.0150097 -0.00473805 -0.0191821 -0.0199088 -0.0221514 -0.0255038 -0.0245354 -0.0219863 -0.0153636 -0.00928773 -0.01376 -0.0224644 -0.0225768 -0.0108358 -0.00533331 -0.00589521 -0.0137126 -0.0167965 -0.00996565 -0.0161262 -0.0211063 -0.0163056 -0.0152765 -0.0153193 -0.0156702 -0.0135629 -0.0104248 0.00151 0.0121532 0.0135326 0.0183783 0.0289119 0.0374476 0.0390569 0.0432136 0.0430565 0.0374035 0.0305911 0.0281241 0.0254638 0.0239132 0.0228328 0.0170818 0.00485013 -7.2467e-05 0.00245162 8.16742e-05 -0.00173546 -0.000627063 -0.00372118 -0.00597709 -0.00800792 -0.00650881 -0.0081659 -0.00874598 -0.00788761 -0.0092332 -0.00878661 -0.00484535 -0.00362137 -0.00270212 -0.00258753 -0.00276985 -0.00717023 -0.00822736 -0.0081553 -0.0101637 -0.0130627 -0.015126 -0.0164197 -0.0174219 -0.0167718 -0.0134854 -0.0104936 -0.00909932 -0.00978579 -0.0094139 -0.00824788 -0.00709881 -0.00698437 -0.00763086 -0.00730426 -0.00493649 -0.00215197 -0.00232272 -0.00371474
255.5575 0.00025 -0.0165749 -0.0199564 0.00414058 0.0556347 0.0731861 0.0541055 0.0453394 0.0494326 0.0513305 0.0500707 0.0325263 0.0201169 0.0111645 0.0160697 0.0152999 -0.00382757 -0.018299 -0.0195284 -0.0222869 -0.0260776 -0.0250358 -0.0226748 -0.0153564 -0.00935484 -0.0137363 -0.0222623 -0.0218511 -0.00979569 -0.00463898 -0.00588986 -0.0138737 -0.0171226 -0.0101855 -0.0159461 -0.0210417 -0.0157792 -0.0147614 -0.0152235 -0.0159192 -0.0139981 -0.0108056 0.00179625 0.0130793 0.0143281 0.0187357 0.029285 0.037868 0.0391961 0.043062 0.0432236 0.0379861 0.0308599 0.0283469 0.0256567 0.0239753 0.0230315 0.0174324 0.00525929 3.56582e-05 0.00272389 0.000268178 -0.00199722 -0.00100907 -0.00388105 -0.00623853 -0.00844721 -0.00690173 -0.0083384 -0.00859308 -0.00777189 -0.00927262 -0.00902913 -0.00514849 -0.00382948 -0.00293913 -0.00275105 -0.002717 -0.00713823 -0.00830146 -0.00813818 -0.0100853 -0.0130314 -0.0152152 -0.0165285 -0.0174745 -0.016783 -0.0135505 -0.0105965 -0.00912599 -0.00978143 -0.00945618 -0.00835161 -0.00717127 -0.00701653 -0.00766156 -0.00738719 -0.00504769 -0.00222129 -0.00232701 -0.00372847
255.56 0.00025 -0.0165329 -0.0197365 0.00422745 0.0559645 0.0726724 0.0536201 0.0454089 0.0506324 0.0524263 0.0504725 0.0318778 0.0198766 0.0115448 0.0159503 0.0155126 -0.00290559 -0.0173602 -0.0191266 -0.0223561 -0.0266031 -0.0255774 -0.0234094 -0.0154149 -0.00952763 -0.0137275 -0.0219507 -0.0211277 -0.0088039 -0.00397624 -0.00585489 -0.013926 -0.0173957 -0.0105576 -0.0158035 -0.0209618 -0.0153266 -0.01429 -0.0151704 -0.0161229 -0.0143593 -0.0111046 0.00205606 0.0139045 0.0151211 0.0191265 0.0296751 0.0383017 0.03935 0.0429132 0.0433496 0.0385574 0.0311412 0.0285723 0.025898 0.024057 0.0231509 0.0176961 0.00568414 0.000189212 0.00298348 0.000465569 -0.00223885 -0.0013943 -0.00403758 -0.00649765 -0.00888248 -0.0073048 -0.00853506 -0.00844784 -0.00765215 -0.0092981 -0.00925477 -0.00547031 -0.00405016 -0.00316987 -0.00291708 -0.00268217 -0.00709989 -0.00837716 -0.00812746 -0.0100065 -0.0129852 -0.0152901 -0.0166318 -0.0175273 -0.0167898 -0.0136077 -0.0106982 -0.00916055 -0.00977881 -0.00949609 -0.00845269 -0.00724795 -0.0070517 -0.00768969 -0.00746645 -0.00515922 -0.00229331 -0.00233423 -0.00374344
255.5625 0.00025 -0.0164995 -0.0195221 0.00432941 0.0561892 0.0719424 0.053002 0.045315 0.0518368 0.0535146 0.0509593 0.0313381 0.0195377 0.0119729 0.0158253 0.0156563 -0.00197307 -0.0163707 -0.018696 -0.0223591 -0.0270811 -0.0261724 -0.024168 -0.0155595 -0.00980793 -0.0137547 -0.0215037 -0.0204034 -0.00786517 -0.00334374 -0.00578643 -0.0138733 -0.0176201 -0.0110735 -0.0157131 -0.0208719 -0.0149585 -0.0138731 -0.0151734 -0.0162863 -0.0146338 -0.0113061 0.00229343 0.0146182 0.0158981 0.019553 0.0300796 0.0387448 0.0395129 0.0427641 0.043434 0.0391064 0.0314299 0.0287985 0.0261808 0.024161 0.0231891 0.0178716 0.0061176 0.000387917 0.00322787 0.000676058 -0.00244994 -0.00177522 -0.00418394 -0.00674827 -0.00931173 -0.007717 -0.00875163 -0.00831869 -0.00753242 -0.00931025 -0.00946152 -0.00580815 -0.00428322 -0.00339098 -0.00307689 -0.00265857 -0.00705073 -0.0084498 -0.00812144 -0.0099297 -0.0129282 -0.0153525 -0.0167327 -0.0175844 -0.0167972 -0.0136608 -0.0108 -0.00920277 -0.00977684 -0.00953341 -0.00855021 -0.00732728 -0.00708813 -0.00771336 -0.00754104 -0.00527085 -0.00236832 -0.00234487 -0.00375961
255.565 0.00025 -0.0164707 -0.0193121 0.00442298 0.0563037 0.0710223 0.0522719 0.0450871 0.0530232 0.0545746 0.0515246 0.0309363 0.0191187 0.012456 0.0156772 0.0157326 -0.00103256 -0.0153488 -0.0182441 -0.0222952 -0.0275101 -0.0268091 -0.0249248 -0.0158048 -0.0101979 -0.0138446 -0.0209166 -0.0196568 -0.00698928 -0.00274328 -0.00568724 -0.013729 -0.0177979 -0.0117118 -0.0156798 -0.0207703 -0.0146692 -0.0135063 -0.0152288 -0.0164069 -0.0148118 -0.0113995 0.00250787 0.0152182 0.0166509 0.0200205 0.0305038 0.0391984 0.0396867 0.0426146 0.0434861 0.0396317 0.0317304 0.0290306 0.0265003 0.0242839 0.02315 0.0179624 0.00655586 0.000636423 0.00345688 0.000904405 -0.00261519 -0.00213712 -0.00431832 -0.0069931 -0.00973543 -0.0081377 -0.00898311 -0.00821226 -0.00741139 -0.00930801 -0.00964614 -0.00615642 -0.00452772 -0.00360225 -0.00322868 -0.00264301 -0.00699222 -0.00851762 -0.00811803 -0.00985641 -0.0128648 -0.0154043 -0.0168323 -0.0176457 -0.0168064 -0.0137116 -0.0109004 -0.00925079 -0.00977579 -0.00956755 -0.00864173 -0.00740683 -0.00712465 -0.0077323 -0.00761059 -0.00538237 -0.00244593 -0.00235835 -0.00377546