255.5025 0.00025 -0.0154963 -0.0677302 -0.140324 -0.137561 -0.143135 -0.136899 -0.131308 -0.122014 -0.1273 -0.123633 -0.127881 -0.13007 -0.134613 -0.135577 -0.133252 -0.130226 -0.132569 -0.126662 -0.125731 -0.12245 -0.117798 -0.116097 -0.11597 -0.114327 -0.112945 -0.117916 -0.11985 -0.124558 -0.131371 -0.138134 -0.139952 -0.139407 -0.138941 -0.140487 -0.148051 -0.149723 -0.15084 -0.146819 -0.1434 -0.140378 -0.140594 -0.135034 -0.127363 -0.121003 -0.11924 -0.116254 -0.110249 -0.10449 -0.100064 -0.0948768 -0.0888278 -0.0871108 -0.0823769 -0.0783437 -0.0736137 -0.0692683 -0.0694593 -0.0717177 -0.0708865 -0.0687729 -0.06765 -0.0651654 -0.0621847 -0.0613632 -0.0577637 -0.0536344 -0.0511364 -0.0505539 -0.0511433 -0.0505602 -0.0509681 -0.0503423 -0.0506243 -0.0503666 -0.0500319 -0.047356 -0.0436515 -0.042103 -0.0403228 -0.0383055 -0.0365655 -0.0336265 -0.0301499 -0.0278856 -0.0266847 -0.0249242 -0.0232698 -0.0213753 -0.0199422 -0.0187826 -0.0165146 -0.0144507 -0.0126977 -0.0109375 -0.00906243 -0.00712955 -0.00483151 -0.00309664 -0.00142114 -0.000369903
255.505 0.00025 -0.015348 -0.0674039 -0.140086 -0.137602 -0.143127 -0.137447 -0.131768 -0.122915 -0.12789 -0.123691 -0.127441 -0.129425 -0.134515 -0.136235 -0.133635 -0.129571 -0.132052 -0.12672 -0.126102 -0.123177 -0.119043 -0.117238 -0.116861 -0.114801 -0.112896 -0.117738 -0.119572 -0.124376 -0.131368 -0.138108 -0.139528 -0.138909 -0.138566 -0.139856 -0.147723 -0.149494 -0.150508 -0.146385 -0.14351 -0.140974 -0.140798 -0.135077 -0.127621 -0.121167 -0.119171 -0.115854 -0.109851 -0.104587 -0.100289 -0.0950155 -0.0888843 -0.0872633 -0.082667 -0.0786832 -0.0737687 -0.0690309 -0.0693075 -0.0718307 -0.0710824 -0.0688098 -0.0675248 -0.0649479 -0.0619121 -0.0611964 -0.0576791 -0.0534989 -0.0509268 -0.0503358 -0.0509308 -0.0504324 -0.050965 -0.0504052 -0.0507002 -0.050307 -0.0497928 -0.0472574 -0.0436828 -0.0420926 -0.0402518 -0.0382457 -0.0365819 -0.0337149 -0.0302167 -0.0278845 -0.0266523 -0.0249175 -0.023257 -0.0213651 -0.0199299 -0.018796 -0.0165491 -0.0144311 -0.0126846 -0.0109721 -0.00910873 -0.00718231 -0.00487589 -0.00313324 -0.00144828 -0.000376658
255.5075 0.00025 -0.0152195 -0.0671871 -0.140043 -0.137803 -0.143328 -0.138078 -0.132213 -0.123809 -0.128463 -0.12385 -0.127108 -0.128894 -0.134492 -0.13672 -0.134063 -0.128966 -0.131449 -0.126721 -0.126392 -0.123751 -0.120041 -0.118276 -0.11776 -0.115533 -0.113221 -0.117772 -0.11945 -0.124372 -0.131594 -0.138287 -0.139285 -0.138718 -0.138575 -0.139511 -0.147462 -0.149288 -0.150231 -0.146061 -0.143752 -0.141677 -0.141069 -0.135172 -0.127907 -0.121355 -0.119102 -0.115426 -0.109426 -0.104641 -0.100486 -0.0951524 -0.088938 -0.087352 -0.0828997 -0.079021 -0.07395 -0.0688343 -0.069152 -0.0718964 -0.0712651 -0.0688922 -0.0674613 -0.0648141 -0.0617162 -0.0610775 -0.0576592 -0.0534651 -0.0508339 -0.0501836 -0.0507317 -0.0503114 -0.050965 -0.0504735 -0.0507638 -0.0502439 -0.0495578 -0.0471407 -0.0437181 -0.0421076 -0.0402008 -0.0381974 -0.0366151 -0.0338134 -0.030287 -0.0278809 -0.0266074 -0.0248958 -0.0232454 -0.0213565 -0.0199195 -0.0188036 -0.0165822 -0.0144147 -0.0126678 -0.0110017 -0.00914978 -0.00722844 -0.0049112 -0.0031623 -0.00147369 -0.00038239
255.51 0.00025 -0.0150172 -0.0670794 -0.140079 -0.138101 -0.143637 -0.138771 -0.132665 -0.124647 -0.128916 -0.124041 -0.12685 -0.12843 -0.134503 -0.13704 -0.134498 -0.128427 -0.130786 -0.12666 -0.126643 -0.124239 -0.120839 -0.119199 -0.118611 -0.116406 -0.113757 -0.117876 -0.119396 -0.124426 -0.131883 -0.1385 -0.13906 -0.138656 -0.138762 -0.139298 -0.147177 -0.149029 -0.149936 -0.145796 -0.144024 -0.142375 -0.141333 -0.13528 -0.128198 -0.121544 -0.119052 -0.115009 -0.109021 -0.104686 -0.100681 -0.0953317 -0.0890363 -0.0874264 -0.0830912 -0.079347 -0.074159 -0.0687031 -0.0690336 -0.0719372 -0.0714303 -0.0690064 -0.0674262 -0.0647083 -0.0615433 -0.0609614 -0.0576647 -0.0534806 -0.0508036 -0.0500575 -0.0505225 -0.0501717 -0.050941 -0.0505353 -0.0508101 -0.0501636 -0.0493186 -0.0469897 -0.0437316 -0.0421275 -0.04016 -0.0381515 -0.0366458 -0.0339086 -0.03036 -0.027885 -0.0265565 -0.0248656 -0.023236 -0.0213529 -0.0199105 -0.0188072 -0.0166145 -0.0144008 -0.012651 -0.011034 -0.00919507 -0.0072771 -0.00494672 -0.00318734 -0.0014972 -0.000389076
255.5125 0.00025 -0.0148792 -0.0669091 -0.140091 -0.138452 -0.144019 -0.139484 -0.133167 -0.125422 -0.129214 -0.124249 -0.126626 -0.128024 -0.134528 -0.137212 -0.134915 -0.127991 -0.130122 -0.126548 -0.126887 -0.124699 -0.121473 -0.120003 -0.119389 -0.117368 -0.11447 -0.118036 -0.119364 -0.12451 -0.1322 -0.138692 -0.138796 -0.138663 -0.139046 -0.139188 -0.146858 -0.148703 -0.149618 -0.145572 -0.144297 -0.143037 -0.141578 -0.135406 -0.128489 -0.121717 -0.119014 -0.114615 -0.108652 -0.104725 -0.100872 -0.0955605 -0.0891856 -0.0874907 -0.0832399 -0.0796637 -0.0744102 -0.0686418 -0.068957 -0.0719458 -0.0715651 -0.0691439 -0.0674154 -0.0646224 -0.0613895 -0.0608402 -0.057684 -0.0535269 -0.0508085 -0.0499499 -0.0503069 -0.0500102 -0.0508921 -0.0505938 -0.0508489 -0.0500725 -0.0490795 -0.0468085 -0.0437196 -0.0421477 -0.0401299 -0.0381076 -0.0366675 -0.0339932 -0.0304339 -0.0278963 -0.0265057 -0.024833 -0.0232285 -0.0213535 -0.0199026 -0.0188063 -0.0166441 -0.014389 -0.0126331 -0.011069 -0.00924665 -0.00733094 -0.00498522 -0.00321037 -0.00151785 -0.000395742
255.515 0.00025 -0.0148389 -0.0666995 -0.140063 -0.138819 -0.144475 -0.140218 -0.133757 -0.126129 -0.129326 -0.124475 -0.126447 -0.127709 -0.134571 -0.13726 -0.135293 -0.127667 -0.129484 -0.126389 -0.127137 -0.125163 -0.121984 -0.120694 -0.120094 -0.118407 -0.115333 -0.118238 -0.119366 -0.124632 -0.132534 -0.138839 -0.138465 -0.138704 -0.13938 -0.139157 -0.146497 -0.148299 -0.149277 -0.145377 -0.14454 -0.143647 -0.141799 -0.13555 -0.128779 -0.121862 -0.118972 -0.114247 -0.108326 -0.10476 -0.101054 -0.0958427 -0.0893936 -0.0875529 -0.0833448 -0.0799621 -0.0746984 -0.0686506 -0.0689212 -0.071913 -0.0716395 -0.069287 -0.0674182 -0.064545 -0.0612573 -0.0607053 -0.0577007 -0.0535872 -0.050848 -0.0498595 -0.0500857 -0.049834 -0.0508273 -0.0506508 -0.0508836 -0.0499796 -0.0488516 -0.0466123 -0.0436859 -0.042167 -0.0401102 -0.0380616 -0.0366797 -0.0340708 -0.0305067 -0.0279082 -0.0264559 -0.0247988 -0.0232217 -0.0213561 -0.0198964 -0.0188017 -0.016671 -0.0143789 -0.0126132 -0.0111035 -0.00930053 -0.00738775 -0.00502849 -0.00323524 -0.00153847 -0.000402179
255.5175 0.00025 -0.0148336 -0.0664905 -0.140026 -0.139205 -0.144983 -0.140965 -0.13441 -0.126773 -0.129271 -0.124713 -0.12634 -0.1275 -0.134619 -0.137192 -0.135573 -0.127453 -0.128922 -0.126163 -0.127356 -0.125647 -0.122405 -0.121281 -0.120709 -0.119473 -0.116282 -0.118451 -0.119417 -0.124804 -0.132848 -0.138893 -0.138078 -0.138794 -0.13972 -0.139212 -0.146129 -0.14783 -0.148903 -0.145222 -0.144747 -0.144168 -0.14197 -0.135703 -0.129081 -0.121997 -0.118924 -0.113914 -0.108058 -0.104783 -0.101216 -0.0961692 -0.0896617 -0.0876184 -0.0834083 -0.0802189 -0.0750018 -0.0687274 -0.0689229 -0.0718422 -0.0716492 -0.0694293 -0.0674329 -0.0644695 -0.0611416 -0.0605535 -0.0577043 -0.0536584 -0.0509272 -0.0497937 -0.049869 -0.0496477 -0.0507496 -0.0507117 -0.0509282 -0.0498943 -0.0486434 -0.0464076 -0.0436272 -0.0421785 -0.040098 -0.0380219 -0.0366892 -0.0341431 -0.0305751 -0.027919 -0.0264047 -0.0247586 -0.0232126 -0.0213613 -0.0198935 -0.0187952 -0.0166958 -0.0143699 -0.0125897 -0.0111324 -0.00935163 -0.00744551 -0.00507654 -0.00326454 -0.00156209 -0.000409389
255.52 0.00025 -0.014816 -0.0662524 -0.139961 -0.139578 -0.145533 -0.14169 -0.135117 -0.127373 -0.129062 -0.124926 -0.126284 -0.127389 -0.134666 -0.137024 -0.135731 -0.127344 -0.128461 -0.125884 -0.127524 -0.126162 -0.122783 -0.12178 -0.121229 -0.120546 -0.117286 -0.118673 -0.119545 -0.125034 -0.133116 -0.138864 -0.137676 -0.13893 -0.140054 -0.13936 -0.145775 -0.147304 -0.148489 -0.145105 -0.144923 -0.14458 -0.14207 -0.13586 -0.129394 -0.122122 -0.118865 -0.113621 -0.107863 -0.104801 -0.101351 -0.096533 -0.0900043 -0.0877043 -0.0834444 -0.0804295 -0.0753102 -0.0688717 -0.0689611 -0.0717289 -0.0716025 -0.0695665 -0.0674571 -0.0643898 -0.0610321 -0.0603811 -0.0576902 -0.0537408 -0.0510416 -0.049749 -0.0496574 -0.049452 -0.050657 -0.0507742 -0.0509776 -0.0498095 -0.0484525 -0.0461984 -0.0435456 -0.0421793 -0.0400969 -0.0379911 -0.0366914 -0.034204 -0.030636 -0.0279269 -0.0263503 -0.0247131 -0.0232009 -0.0213678 -0.0198904 -0.0187852 -0.0167168 -0.0143607 -0.0125617 -0.0111524 -0.00939711 -0.00750096 -0.00512573 -0.00329804 -0.00159023 -0.000417658
255.5225 0.00025 -0.0147721 -0.0659615 -0.139887 -0.139919 -0.146074 -0.142373 -0.135879 -0.127927 -0.128718 -0.12508 -0.126295 -0.127371 -0.134688 -0.136795 -0.135783 -0.127318 -0.128105 -0.125561 -0.127611 -0.126702 -0.123156 -0.122192 -0.12166 -0.121594 -0.11831 -0.118895 -0.119769 -0.125363 -0.13334 -0.138758 -0.137292 -0.139119 -0.140392 -0.139595 -0.145436 -0.146751 -0.148065 -0.145026 -0.145054 -0.144878 -0.142096 -0.13601 -0.129716 -0.122239 -0.11878 -0.113367 -0.107737 -0.104806 -0.10144 -0.0969179 -0.090406 -0.0878032 -0.0834503 -0.0805872 -0.0756096 -0.0690736 -0.0690332 -0.0715844 -0.0715074 -0.0696975 -0.0674822 -0.0642978 -0.060932 -0.0601894 -0.0576591 -0.0538371 -0.0511789 -0.0497235 -0.049452 -0.0492491 -0.0505446 -0.0508283 -0.0510256 -0.0497212 -0.0482711 -0.0459854 -0.043444 -0.0421715 -0.0401066 -0.0379657 -0.0366836 -0.0342528 -0.0306902 -0.0279304 -0.0262925 -0.0246627 -0.0231831 -0.0213716 -0.0198819 -0.0187665 -0.016729 -0.0143492 -0.0125278 -0.0111622 -0.00943577 -0.00755107 -0.00517387 -0.00333469 -0.00162044 -0.00042592
255.525 0.00025 -0.0147119 -0.0656385 -0.139802 -0.140235 -0.146584 -0.143019 -0.136694 -0.128458 -0.12829 -0.125157 -0.126368 -0.127432 -0.134667 -0.136531 -0.135751 -0.127351 -0.127864 -0.125229 -0.127606 -0.127243 -0.123553 -0.122539 -0.12201 -0.122597 -0.119322 -0.119116 -0.120109 -0.125816 -0.133506 -0.138553 -0.136939 -0.139358 -0.140724 -0.139908 -0.145125 -0.146163 -0.147629 -0.144983 -0.145154 -0.145077 -0.142058 -0.136154 -0.130044 -0.122356 -0.118675 -0.113145 -0.107678 -0.104815 -0.101483 -0.0973217 -0.0908588 -0.0879115 -0.0834354 -0.0807013 -0.0759081 -0.0693443 -0.0691588 -0.0714324 -0.0713736 -0.0698165 -0.0675063 -0.0642004 -0.0608441 -0.0599765 -0.0576075 -0.0539361 -0.0513287 -0.0497145 -0.049254 -0.0490373 -0.050411 -0.050868 -0.0510687 -0.0496248 -0.0480948 -0.0457739 -0.0433232 -0.0421509 -0.0401185 -0.0379453 -0.0366676 -0.0342876 -0.0307364 -0.027928 -0.0262321 -0.0246065 -0.0231571 -0.0213697 -0.0198658 -0.0187361 -0.0167302 -0.0143339 -0.0124881 -0.0111625 -0.00946849 -0.00759669 -0.00522126 -0.00337027 -0.00164855 -0.000433884
255.5275 0.00025 -0.014625 -0.0652982 -0.139713 -0.140507 -0.146992 -0.143559 -0.137522 -0.128974 -0.127805 -0.125143 -0.126494 -0.127563 -0.134613 -0.136251 -0.135618 -0.127404 -0.127719 -0.124923 -0.127516 -0.127763 -0.12401 -0.122855 -0.122304 -0.123535 -0.120283 -0.119339 -0.12056 -0.126397 -0.133613 -0.138257 -0.136629 -0.139623 -0.141031 -0.140292 -0.144865 -0.145575 -0.1472 -0.144981 -0.145211 -0.145162 -0.141954 -0.136299 -0.130381 -0.122485 -0.118556 -0.112962 -0.107699 -0.104842 -0.101488 -0.0977362 -0.0913552 -0.0880371 -0.0834104 -0.0807787 -0.0762137 -0.0696996 -0.069344 -0.0712789 -0.071213 -0.0699315 -0.0675481 -0.0641127 -0.0607763 -0.0597453 -0.0575373 -0.0540366 -0.0514973 -0.0497271 -0.0490613 -0.0488172 -0.0502604 -0.0508924 -0.051108 -0.0495211 -0.047925 -0.0455748 -0.0431937 -0.0421108 -0.0401296 -0.0379356 -0.0366491 -0.0343161 -0.0307787 -0.0279223 -0.0261696 -0.0245489 -0.0231275 -0.0213683 -0.0198489 -0.0187013 -0.0167267 -0.0143205 -0.0124479 -0.0111575 -0.00949906 -0.00764195 -0.0052686 -0.00339977 -0.00167092 -0.000440776
255.53 0.00025 -0.0145073 -0.0649392 -0.139621 -0.14074 -0.147257 -0.14398 -0.138378 -0.129477 -0.127334 -0.125042 -0.126654 -0.127759 -0.134526 -0.135956 -0.1354 -0.127469 -0.127659 -0.124676 -0.127355 -0.128224 -0.124554 -0.123162 -0.122559 -0.124373 -0.121141 -0.119597 -0.121131 -0.127092 -0.133648 -0.137875 -0.13637 -0.1399 -0.141297 -0.140727 -0.144645 -0.144994 -0.146776 -0.145011 -0.145231 -0.145144 -0.141786 -0.136436 -0.130729 -0.122638 -0.118427 -0.112818 -0.107801 -0.10489 -0.101455 -0.0981359 -0.091892 -0.0881951 -0.0833919 -0.0808217 -0.0765225 -0.070135 -0.0695797 -0.0711213 -0.0710356 -0.0700392 -0.0676042 -0.0640272 -0.0607236 -0.0594957 -0.057444 -0.0541426 -0.0516968 -0.049766 -0.0488761 -0.048592 -0.050093 -0.0509032 -0.0511441 -0.0494103 -0.0477581 -0.04539 -0.043061 -0.0420505 -0.0401359 -0.0379388 -0.0366356 -0.0343434 -0.0308208 -0.0279166 -0.0261083 -0.0244956 -0.0231026 -0.0213753 -0.0198407 -0.0186732 -0.0167268 -0.0143153 -0.0124141 -0.0111522 -0.00953066 -0.00768821 -0.00531371 -0.00342386 -0.00169006 -0.000446458
255.5325 0.00025 -0.0143568 -0.0645959 -0.139562 -0.140895 -0.147351 -0.144293 -0.139232 -0.129938 -0.126916 -0.124862 -0.126837 -0.128022 -0.134416 -0.135645 -0.135126 -0.127524 -0.127666 -0.124504 -0.127146 -0.128599 -0.125178 -0.123478 -0.1228 -0.125075 -0.121852 -0.119901 -0.121797 -0.127912 -0.133628 -0.137403 -0.136162 -0.140187 -0.14153 -0.141182 -0.144454 -0.144424 -0.146359 -0.145059 -0.145201 -0.145039 -0.14156 -0.136551 -0.131079 -0.122819 -0.118294 -0.112708 -0.107966 -0.104963 -0.101391 -0.0985142 -0.0924665 -0.0883886 -0.0833811 -0.0808271 -0.0768104 -0.0706225 -0.0698552 -0.070971 -0.0708404 -0.0701262 -0.0676647 -0.0639482 -0.0606878 -0.0592281 -0.0573266 -0.0542549 -0.0519224 -0.0498331 -0.0487032 -0.0483645 -0.0499112 -0.0508971 -0.0511765 -0.0492971 -0.0475958 -0.045214 -0.0429209 -0.0419726 -0.0401379 -0.03795 -0.0366275 -0.0343706 -0.0308656 -0.0279147 -0.0260532 -0.0244494 -0.0230843 -0.0213949 -0.0198439 -0.0186524 -0.0167309 -0.0143187 -0.0123906 -0.0111487 -0.0095616 -0.00773249 -0.00535626 -0.00344673 -0.00170832 -0.000451197
255.535 0.00025 -0.0141723 -0.0642505 -0.1395 -0.140984 -0.147279 -0.144503 -0.140065 -0.130357 -0.12657 -0.124628 -0.127016 -0.128348 -0.134307 -0.135327 -0.134807 -0.127571 -0.127704 -0.124413 -0.126931 -0.12886 -0.125854 -0.123839 -0.123027 -0.125614 -0.122394 -0.120259 -0.12255 -0.128847 -0.133579 -0.136854 -0.136014 -0.140481 -0.141725 -0.141652 -0.144313 -0.143883 -0.145946 -0.145103 -0.14511 -0.144856 -0.141283 -0.136635 -0.131408 -0.123029 -0.118164 -0.112618 -0.108178 -0.105058 -0.101296 -0.0988672 -0.0930649 -0.0886254 -0.0833948 -0.0808125 -0.0770796 -0.0711434 -0.070151 -0.0708217 -0.0706319 -0.0701816 -0.0677199 -0.0638698 -0.0606654 -0.0589489 -0.0571853 -0.054367 -0.0521635 -0.0499256 -0.0485431 -0.0481376 -0.0497192 -0.0508716 -0.0512008 -0.0491827 -0.0474345 -0.0450421 -0.0427761 -0.0418799 -0.0401331 -0.0379639 -0.0366202 -0.0343956 -0.030909 -0.0279122 -0.0259985 -0.0244044 -0.0230663 -0.0214205 -0.0198519 -0.0186304 -0.0167312 -0.0143248 -0.012373 -0.0111441 -0.00958826 -0.00777144 -0.00539753 -0.00347079 -0.00172673 -0.000455499
255.5375 0.00025 -0.0139636 -0.0639216 -0.139465 -0.140965 -0.147025 -0.144553 -0.140877 -0.130739 -0.126311 -0.12438 -0.127159 -0.128705 -0.134227 -0.135019 -0.134459 -0.127608 -0.127759 -0.1244 -0.126743 -0.129 -0.126551 -0.124279 -0.123269 -0.125989 -0.122743 -0.120668 -0.123372 -0.129858 -0.133516 -0.136249 -0.135915 -0.140762 -0.141869 -0.142105 -0.144217 -0.143377 -0.145549 -0.145136 -0.144935 -0.144585 -0.140957 -0.136687 -0.131714 -0.123277 -0.118051 -0.11255 -0.108429 -0.105185 -0.101199 -0.0991909 -0.0936742 -0.0889082 -0.0834406 -0.0807828 -0.0773351 -0.071697 -0.0704632 -0.0706806 -0.0704202 -0.0702124 -0.0677776 -0.0638083 -0.0606656 -0.0586675 -0.0570162 -0.0544661 -0.0524055 -0.0500416 -0.0484007 -0.0479144 -0.0495158 -0.0508242 -0.051214 -0.0490655 -0.0472721 -0.0448757 -0.0426317 -0.0417718 -0.0401151 -0.0379749 -0.0366089 -0.0344172 -0.0309496 -0.0279034 -0.0259386 -0.0243587 -0.0230443 -0.0214428 -0.0198581 -0.0186037 -0.0167223 -0.0143287 -0.0123558 -0.0111354 -0.00961186 -0.00780893 -0.00543838 -0.00349439 -0.00174466 -0.000460109
255.54 0.00025 -0.0137307 -0.0636153 -0.139439 -0.140828 -0.146624 -0.144405 -0.141614 -0.131104 -0.126149 -0.124162 -0.127255 -0.129065 -0.134192 -0.134726 -0.134098 -0.127623 -0.127806 -0.124462 -0.126611 -0.129066 -0.127238 -0.12482 -0.12352 -0.126207 -0.122909 -0.121133 -0.124264 -0.130897 -0.133451 -0.13562 -0.135861 -0.141036 -0.141977 -0.142523 -0.144157 -0.142929 -0.145179 -0.145156 -0.144687 -0.144239 -0.14059 -0.1367 -0.131985 -0.123561 -0.117973 -0.112504 -0.10871 -0.10536 -0.101128 -0.0994775 -0.0942831 -0.0892374 -0.0835301 -0.0807552 -0.0775808 -0.0722701 -0.0707878 -0.0705587 -0.0702187 -0.0702192 -0.0678437 -0.0637723 -0.0606852 -0.0583858 -0.0568228 -0.05455 -0.0526427 -0.0501777 -0.0482842 -0.0477034 -0.0493048 -0.0507529 -0.0512149 -0.0489504 -0.0471107 -0.0447199 -0.0424906 -0.0416427 -0.0400779 -0.0379792 -0.0365966 -0.0344379 -0.0309899 -0.0278888 -0.0258735 -0.0243132 -0.0230186 -0.0214629 -0.0198643 -0.0185732 -0.0167064 -0.0143304 -0.0123388 -0.0111241 -0.0096368 -0.00785142 -0.00548121 -0.00351704 -0.00176226 -0.000464687
255.5425 0.00025 -0.0134809 -0.0633416 -0.139429 -0.140561 -0.146087 -0.144035 -0.142244 -0.131471 -0.126109 -0.123982 -0.127304 -0.129411 -0.1342 -0.134454 -0.133734 -0.127591 -0.127822 -0.124598 -0.126548 -0.129066 -0.127867 -0.12548 -0.123785 -0.126285 -0.122921 -0.12163 -0.125211 -0.131947 -0.133417 -0.134988 -0.13584 -0.141302 -0.142069 -0.142904 -0.14414 -0.142548 -0.144829 -0.145149 -0.144366 -0.143836 -0.140194 -0.136661 -0.132204 -0.123867 -0.117937 -0.112476 -0.109002 -0.105564 -0.101083 -0.099722 -0.0948737 -0.0896051 -0.0836626 -0.080742 -0.077826 -0.0728467 -0.0711206 -0.0704619 -0.0700438 -0.0702096 -0.0679114 -0.063763 -0.0607195 -0.0581013 -0.0566091 -0.0546258 -0.0528774 -0.0503334 -0.0481911 -0.047503 -0.0490903 -0.0506597 -0.0511999 -0.0488385 -0.0469497 -0.0445733 -0.0423578 -0.0414966 -0.0400246 -0.0379778 -0.0365856 -0.0344591 -0.0310346 -0.0278731 -0.0258058 -0.0242671 -0.0229913 -0.0214861 -0.0198767 -0.0185445 -0.016685 -0.0143297 -0.0123239 -0.0111108 -0.00966083 -0.00789674 -0.00552679 -0.00354174 -0.00178077 -0.000469624
255.545 0.00025 -0.0132268 -0.0631016 -0.139415 -0.140159 -0.145441 -0.143448 -0.14274 -0.131838 -0.126192 -0.123855 -0.127318 -0.129725 -0.134254 -0.134216 -0.133366 -0.127509 -0.127809 -0.124826 -0.12657 -0.129033 -0.128405 -0.126234 -0.124055 -0.126209 -0.122802 -0.122146 -0.1262 -0.132961 -0.133414 -0.134391 -0.135856 -0.141552 -0.142159 -0.143244 -0.144159 -0.142235 -0.144491 -0.145115 -0.143987 -0.143397 -0.139771 -0.136563 -0.13237 -0.124185 -0.117949 -0.112474 -0.109297 -0.105792 -0.101071 -0.0999177 -0.0954273 -0.0900148 -0.0838472 -0.0807515 -0.0780659 -0.0734228 -0.0714642 -0.0703977 -0.06988 -0.070166 -0.0679636 -0.0637639 -0.0607579 -0.0578142 -0.0563824 -0.0546965 -0.0531049 -0.0505068 -0.0481265 -0.0473151 -0.0488776 -0.0505486 -0.0511669 -0.0487295 -0.0467913 -0.0444346 -0.0422391 -0.0413451 -0.0399623 -0.0379693 -0.0365742 -0.0344829 -0.0310823 -0.0278565 -0.0257349 -0.02422 -0.0229655 -0.0215123 -0.0198959 -0.0185216 -0.016663 -0.0143303 -0.0123147 -0.0110974 -0.00968042 -0.00794066 -0.00557627 -0.00357005 -0.00180082 -0.000475269
255.5475 0.00025 -0.0129798 -0.0628781 -0.139369 -0.139654 -0.144691 -0.142654 -0.143054 -0.132185 -0.126413 -0.123809 -0.127295 -0.129992 -0.134349 -0.134024 -0.132996 -0.127367 -0.127762 -0.125141 -0.12667 -0.128982 -0.128851 -0.127043 -0.124321 -0.126009 -0.122609 -0.122665 -0.127223 -0.133924 -0.133457 -0.133866 -0.135903 -0.141783 -0.142255 -0.14355 -0.144216 -0.142008 -0.14417 -0.145027 -0.143546 -0.142913 -0.139315 -0.136404 -0.132487 -0.124507 -0.118025 -0.112507 -0.109582 -0.106039 -0.101104 -0.10007 -0.0959365 -0.0904571 -0.0840825 -0.0807871 -0.0783084 -0.0739897 -0.0718109 -0.0703711 -0.069751 -0.070102 -0.0680024 -0.0637833 -0.0608028 -0.0575355 -0.0561492 -0.0547588 -0.0533176 -0.0506946 -0.0480943 -0.0471421 -0.0486617 -0.0504168 -0.0511144 -0.0486222 -0.0466374 -0.0443082 -0.042139 -0.0411923 -0.0398947 -0.037954 -0.0365627 -0.0345098 -0.031136 -0.0278383 -0.0256593 -0.0241707 -0.0229422 -0.0215422 -0.0199207 -0.0185037 -0.0166416 -0.0143345 -0.0123127 -0.0110843 -0.0096958 -0.00798371 -0.00562797 -0.00359987 -0.00182132 -0.000481206
255.55 0.00025 -0.0127541 -0.0627017 -0.139302 -0.139083 -0.143864 -0.141664 -0.143166 -0.132506 -0.126766 -0.12385 -0.12725 -0.130198 -0.134444 -0.133896 -0.13266 -0.127163 -0.127696 -0.125523 -0.126858 -0.128947 -0.129209 -0.127853 -0.124582 -0.125681 -0.122392 -0.123175 -0.128254 -0.134833 -0.133545 -0.13343 -0.135969 -0.141982 -0.142364 -0.143823 -0.144315 -0.141867 -0.14385 -0.14487 -0.14305 -0.142384 -0.138822 -0.136187 -0.132553 -0.124817 -0.118179 -0.112591 -0.109857 -0.106299 -0.101195 -0.100191 -0.0963912 -0.0909253 -0.0843623 -0.0808478 -0.0785437 -0.0745293 -0.0721527 -0.070374 -0.0696523 -0.0700186 -0.0680334 -0.0638354 -0.0608707 -0.0572775 -0.0559106 -0.0548056 -0.0535061 -0.0508953 -0.0480989 -0.0469887 -0.0484484 -0.0502611 -0.051037 -0.0485187 -0.0464892 -0.0441918 -0.0420589 -0.0410418 -0.039823 -0.0379314 -0.0365466 -0.0345368 -0.031195 -0.0278188 -0.0255795 -0.02412 -0.022919 -0.0215721 -0.0199489 -0.0184891 -0.0166195 -0.01434 -0.0123165 -0.0110719 -0.00970831 -0.00802708 -0.00567996 -0.00362991 -0.00184106 -0.000487046
255.5525 0.00025 -0.0125512 -0.0625478 -0.139208 -0.138442 -0.142989 -0.140516 -0.143076 -0.132809 -0.127253 -0.123994 -0.127197 -0.130323 -0.134515 -0.133822 -0.132352 -0.126905 -0.127609 -0.125959 -0.127133 -0.128936 -0.129503 -0.128624 -0.124864 -0.125269 -0.122209 -0.123684 -0.129263 -0.135697 -0.13367 -0.133096 -0.136042 -0.142144 -0.142496 -0.144066 -0.144441 -0.141818 -0.143541 -0.144638 -0.142527 -0.141842 -0.138302 -0.135914 -0.132573 -0.125108 -0.118412 -0.112732 -0.110113 -0.10657 -0.101348 -0.10028 -0.0967814 -0.0914016 -0.0846784 -0.0809411 -0.0787776 -0.0750328 -0.0724854 -0.0704091 -0.0695897 -0.0699207 -0.0680547 -0.0639179 -0.060956 -0.057036 -0.0556648 -0.054839 -0.0536692 -0.0511071 -0.0481412 -0.0468553 -0.0482437 -0.0500886 -0.0509318 -0.0484214 -0.0463487 -0.0440833 -0.0419958 -0.0408924 -0.0397426 -0.0379002 -0.0365227 -0.0345586 -0.031255 -0.0277953 -0.0254944 -0.0240651 -0.0228903 -0.0215972 -0.0199761 -0.0184754 -0.016595 -0.0143437 -0.012324 -0.0110594 -0.00971614 -0.00806952 -0.00573286 -0.00366054 -0.00185983 -0.000492588
255.555 0.00025 -0.012384 -0.0624236 -0.139037 -0.137758 -0.142101 -0.139259 -0.14276 -0.133062 -0.127856 -0.124247 -0.127157 -0.130385 -0.134566 -0.133797 -0.132076 -0.1266 -0.127505 -0.126431 -0.127502 -0.128964 -0.129755 -0.129307 -0.125159 -0.124794 -0.122096 -0.124207 -0.13022 -0.1365 -0.133822 -0.13287 -0.136139 -0.142259 -0.142641 -0.144289 -0.144598 -0.141846 -0.143241 -0.144327 -0.141997 -0.1413 -0.137769 -0.135598 -0.132542 -0.125364 -0.11872 -0.11293 -0.110342 -0.106842 -0.101567 -0.100349 -0.0971108 -0.0918937 -0.0850483 -0.0810817 -0.0790138 -0.0755023 -0.0728098 -0.0704682 -0.0695553 -0.0698193 -0.0680662 -0.0640179 -0.0610502 -0.0568099 -0.0554156 -0.0548573 -0.053801 -0.0513194 -0.048217 -0.0467424 -0.0480456 -0.0499015 -0.0507982 -0.0483223 -0.0462137 -0.0439793 -0.0419475 -0.0407482 -0.039656 -0.0378671 -0.0364901 -0.0345736 -0.0313205 -0.0277702 -0.0254034 -0.024002 -0.0228542 -0.0216158 -0.0200012 -0.0184617 -0.0165677 -0.0143429 -0.0123334 -0.0110468 -0.00971879 -0.00811024 -0.00578715 -0.00369189 -0.00187878 -0.000498273
255.5575 0.00025 -0.0122514 -0.0623346 -0.138814 -0.137066 -0.141221 -0.137947 -0.142243 -0.133284 -0.128558 -0.124623 -0.127129 -0.130386 -0.134592 -0.133799 -0.131838 -0.126284 -0.127409 -0.126919 -0.127952 -0.129042 -0.129999 -0.129895 -0.125468 -0.124306 -0.122077 -0.124762 -0.131091 -0.137216 -0.133981 -0.132756 -0.136261 -0.142312 -0.142792 -0.144503 -0.144772 -0.14193 -0.142935 -0.143921 -0.141478 -0.140755 -0.137208 -0.135228 -0.132454 -0.125574 -0.119101 -0.113198 -0.110553 -0.107116 -0.101846 -0.100403 -0.0973754 -0.0923904 -0.0854704 -0.0812826 -0.0792667 -0.0759329 -0.0731132 -0.0705578 -0.0695524 -0.0697091 -0.0680619 -0.0641341 -0.0611508 -0.0566027 -0.0551712 -0.0548611 -0.053899 -0.0515291 -0.0483275 -0.046649 -0.0478498 -0.0496971 -0.0506356 -0.0482168 -0.0460787 -0.0438776 -0.0419166 -0.0406143 -0.03957 -0.0378339 -0.0364496 -0.0345843 -0.0313982 -0.0277509 -0.0253112 -0.0239325 -0.0228139 -0.0216306 -0.0200256 -0.0184482 -0.0165364 -0.0143374 -0.0123449 -0.0110346 -0.00971705 -0.00815033 -0.00584409 -0.00372457 -0.00189795 -0.000504226
255.56 0.00025 -0.0121485 -0.0622636 -0.138546 -0.136342 -0.140336 -0.136631 -0.141498 -0.13345 -0.129346 -0.125142 -0.127145 -0.130333 -0.134588 -0.133817 -0.131631 -0.125976 -0.127328 -0.12739 -0.128462 -0.129165 -0.13024 -0.130374 -0.125766 -0.123838 -0.122142 -0.12536 -0.131859 -0.137826 -0.13414 -0.132742 -0.136432 -0.142324 -0.142946 -0.144708 -0.144953 -0.142042 -0.142606 -0.143412 -0.140966 -0.140186 -0.136612 -0.134807 -0.132305 -0.125739 -0.119546 -0.113543 -0.110753 -0.107384 -0.102173 -0.10045 -0.0975826 -0.0928824 -0.0859361 -0.0815401 -0.079533 -0.0763241 -0.0733941 -0.070679 -0.0695845 -0.0696034 -0.0680446 -0.0642651 -0.0612578 -0.0564248 -0.0549414 -0.0548541 -0.0539601 -0.0517296 -0.0484703 -0.0465768 -0.0476564 -0.0494733 -0.0504428 -0.0481022 -0.0459433 -0.0437738 -0.0418979 -0.0404905 -0.0394799 -0.0377989 -0.0364008 -0.034591 -0.0314892 -0.0277425 -0.0252227 -0.0238618 -0.022774 -0.0216474 -0.0200539 -0.0184394 -0.0165058 -0.0143299 -0.0123604 -0.0110252 -0.00971277 -0.00818944 -0.00590258 -0.00375865 -0.00191775 -0.000510359
255.5625 0.00025 -0.012073 -0.0622158 -0.138221 -0.135611 -0.139465 -0.135358 -0.140549 -0.133583 -0.130192 -0.125793 -0.1272 -0.130206 -0.134554 -0.133822 -0.13145 -0.125691 -0.127261 -0.127826 -0.129008 -0.129321 -0.130471 -0.130743 -0.126033 -0.123429 -0.122287 -0.126028 -0.132535 -0.138316 -0.134295 -0.132803 -0.136649 -0.142302 -0.143119 -0.144932 -0.14515 -0.142164 -0.142265 -0.142808 -0.140481 -0.139607 -0.135994 -0.134349 -0.1321 -0.125858 -0.120034 -0.113953 -0.110942 -0.107643 -0.102547 -0.100499 -0.0977256 -0.0933579 -0.0864449 -0.0818508 -0.0798119 -0.0766808 -0.0736552 -0.0708342 -0.0696478 -0.0694944 -0.0680074 -0.0643987 -0.061366 -0.0562716 -0.0547283 -0.054839 -0.0539934 -0.0519192 -0.0486439 -0.0465314 -0.0474737 -0.0492357 -0.0502169 -0.0479769 -0.0458119 -0.0436688 -0.041889 -0.0403724 -0.0393792 -0.0377587 -0.036342 -0.0345909 -0.0315905 -0.0277463 -0.0251417 -0.0237934 -0.0227367 -0.021667 -0.0200884 -0.0184392 -0.0164798 -0.0143225 -0.0123819 -0.0110201 -0.00970597 -0.00822594 -0.00596203 -0.00379386 -0.00193729 -0.000516524
255.565 0.00025 -0.0120243 -0.0621967 -0.137854 -0.13486 -0.138623 -0.134225 -0.139458 -0.133635 -0.13103 -0.12656 -0.12734 -0.130031 -0.134508 -0.13378 -0.131281 -0.12544 -0.127238 -0.128228 -0.129582 -0.129517 -0.130701 -0.131007 -0.12626 -0.123103 -0.122508 -0.12678 -0.133141 -0.138684 -0.134463 -0.132947 -0.136916 -0.142248 -0.143312 -0.14516 -0.145352 -0.142284 -0.141919 -0.142144 -0.140031 -0.139026 -0.135369 -0.133858 -0.131844 -0.125937 -0.120544 -0.114426 -0.111133 -0.107897 -0.102958 -0.100556 -0.0978167 -0.0938165 -0.0869977 -0.0822229 -0.0801024 -0.07701 -0.0738894 -0.0710119 -0.0697331 -0.06939 -0.0679495 -0.0645237 -0.0614683 -0.0561461 -0.0545344 -0.0548138 -0.0540005 -0.0520944 -0.0488484 -0.0465112 -0.0473022 -0.0489883 -0.0499649 -0.0478398 -0.0456843 -0.043563 -0.0418876 -0.0402666 -0.0392729 -0.0377168 -0.0362716 -0.0345752 -0.0316989 -0.0277605 -0.0250662 -0.0237243 -0.0227006 -0.0216872 -0.0201263 -0.0184459 -0.01646 -0.0143151 -0.0124084 -0.0110191 -0.00969597 -0.00825967 -0.00602258 -0.00382978 -0.00195681 -0.000522684
255.5675 0.00025 -0.012001 -0.0621954 -0.137446 -0.134121 -0.137832 -0.133263 -0.138265 -0.133619 -0.131827 -0.127433 -0.12757 -0.129804 -0.134458 -0.133665 -0.131115 -0.125242 -0.127278 -0.128602 -0.130147 -0.12974 -0.130926 -0.131191 -0.126451 -0.122881 -0.122807 -0.127616 -0.133705 -0.138923 -0.134616 -0.133138 -0.137223 -0.142167 -0.143519 -0.145389 -0.145547 -0.14237 -0.14157 -0.141444 -0.139621 -0.138452 -0.134749 -0.133346 -0.131535 -0.125986 -0.121065 -0.114955 -0.111334 -0.108144 -0.103396 -0.100626 -0.0978567 -0.0942521 -0.0875879 -0.0826539 -0.0804094 -0.077317 -0.0740975 -0.0712114 -0.0698502 -0.0693043 -0.0678783 -0.064638 -0.061561 -0.0560516 -0.0543632 -0.0547737 -0.0539781 -0.0522518 -0.0490817 -0.0465198 -0.0471437 -0.0487299 -0.0496882 -0.0476897 -0.0455628 -0.04346 -0.0418919 -0.0401768 -0.0391739 -0.0376814 -0.0361923 -0.0345418 -0.0318103 -0.0277848 -0.0249977 -0.0236516 -0.0226598 -0.0217026 -0.0201637 -0.0184572 -0.0164448 -0.0143062 -0.0124382 -0.0110211 -0.0096828 -0.00829031 -0.0060838 -0.00386744 -0.00197669 -0.00052893
255.57 0.00025 -0.0119975 -0.0622314 -0.137003 -0.133357 -0.13711 -0.132524 -0.137033 -0.13353 -0.132544 -0.128392 -0.127892 -0.129534 -0.134418 -0.133475 -0.130954 -0.125111 -0.127387 -0.128958 -0.130677 -0.129977 -0.131142 -0.131308 -0.126638 -0.122777 -0.123168 -0.128509 -0.134248 -0.139063 -0.134765 -0.133384 -0.137589 -0.142096 -0.143758 -0.145618 -0.145733 -0.142435 -0.141213 -0.140714 -0.13922 -0.13787 -0.134141 -0.13281 -0.131177 -0.126011 -0.121587 -0.115534 -0.111561 -0.108394 -0.103857 -0.100712 -0.0978502 -0.09465 -0.0882025 -0.0831377 -0.0807291 -0.0776105 -0.0742704 -0.0714306 -0.0699961 -0.069239 -0.0678009 -0.0647354 -0.0616413 -0.0559882 -0.0542191 -0.0547231 -0.0539253 -0.0523837 -0.0493393 -0.0465618 -0.0470024 -0.0484674 -0.0493918 -0.0475277 -0.04545 -0.0433624 -0.0419047 -0.0401017 -0.0390772 -0.0376525 -0.0361089 -0.0344906 -0.0319218 -0.027822 -0.0249365 -0.0235755 -0.022615 -0.0217137 -0.0202013 -0.0184724 -0.0164328 -0.0142945 -0.0124695 -0.0110255 -0.00966789 -0.00831816 -0.0061456 -0.00390657 -0.00199596 -0.000534754