255.5025 0.00025 0.00575901 0.00691049 0.0142199 0.0405187 0.0610599 0.0757385 0.0849352 0.0873406 0.0783223 0.0685884 0.0731067 0.0808906 0.0689652 0.0532402 0.0445722 0.0482084 0.0483263 0.0353368 0.00674604 -0.0152566 -0.0277915 -0.0328726 -0.0427494 -0.0519627 -0.0544879 -0.0605259 -0.0708513 -0.0670474 -0.0463439 -0.0373112 -0.0244076 -0.0111577 -0.0105238 -0.0154374 -0.0190096 -0.0178206 -0.0201709 -0.0347362 -0.043877 -0.0519745 -0.0570806 -0.0591251 -0.0586807 -0.0495775 -0.0359869 -0.0380048 -0.0406737 -0.0326506 -0.0290097 -0.0264748 -0.0241087 -0.0233891 -0.0216759 -0.0197061 -0.0142644 -0.00401036 0.00387443 0.0126599 0.0185509 0.0208135 0.0214873 0.0198966 0.0222179 0.0130407 -0.0101279 -0.0276941 -0.0430109 -0.0589499 -0.066436 -0.0715062 -0.0730399 -0.0719865 -0.0744945 -0.0768913 -0.0790051 -0.0799553 -0.0733858 -0.0656398 -0.0582925 -0.0505602 -0.044262 -0.0403716 -0.0381436 -0.0396097 -0.0413984 -0.0396855 -0.0357126 -0.0302735 -0.0259773 -0.025717 -0.0276248 -0.0315592 -0.0342076 -0.0356022 -0.0383912 -0.0366504 -0.0314923 -0.025007 -0.0113942 0.00126365
255.505 0.00025 0.00593167 0.00715712 0.0146627 0.0412806 0.0614727 0.076135 0.0857876 0.0878875 0.0791715 0.0695831 0.0728259 0.0804421 0.0690519 0.0531468 0.0442251 0.0479525 0.0481929 0.0355019 0.00707439 -0.0157171 -0.0289357 -0.0332202 -0.0422749 -0.0517442 -0.0549976 -0.0606666 -0.070477 -0.0666264 -0.0455115 -0.0364417 -0.0244002 -0.011785 -0.0108765 -0.015748 -0.0194198 -0.01802 -0.0203146 -0.0345377 -0.0430143 -0.0511374 -0.0568196 -0.0593343 -0.0594237 -0.0502993 -0.0359413 -0.0373498 -0.0405802 -0.0334577 -0.0302822 -0.0274414 -0.0240074 -0.0229826 -0.0216075 -0.0198609 -0.0148065 -0.00482698 0.00328867 0.0122278 0.0179532 0.0204344 0.0215738 0.019731 0.0217727 0.012975 -0.00970521 -0.0270959 -0.0426274 -0.0589583 -0.0664797 -0.0712533 -0.0729548 -0.0723508 -0.0748602 -0.0770904 -0.0791 -0.0800029 -0.0735053 -0.0657177 -0.0583472 -0.0505145 -0.0439123 -0.0399614 -0.0380295 -0.0395995 -0.0412208 -0.0393833 -0.035545 -0.0302929 -0.0260662 -0.0257716 -0.0276176 -0.0315755 -0.0342965 -0.0356375 -0.0383314 -0.0365573 -0.0314072 -0.0249792 -0.0113778 0.00134045
255.5075 0.00025 0.00608456 0.00740577 0.0151583 0.0420798 0.0618805 0.0764859 0.0866041 0.0884083 0.0800457 0.0706651 0.0726485 0.0798926 0.0689778 0.0531093 0.044011 0.0477172 0.0478792 0.0354878 0.0074126 -0.0159966 -0.0299082 -0.0336107 -0.041943 -0.0515632 -0.0555375 -0.0608351 -0.069976 -0.0661031 -0.0446897 -0.0354937 -0.0243358 -0.0125244 -0.0113662 -0.0160623 -0.0197857 -0.0182761 -0.0205072 -0.0342628 -0.0421185 -0.0503329 -0.0565416 -0.0594864 -0.0601145 -0.0510531 -0.0360138 -0.0367198 -0.040421 -0.0342401 -0.0315588 -0.0284249 -0.0239094 -0.0225635 -0.0215423 -0.0199947 -0.0153 -0.00562459 0.00267184 0.0117441 0.0173253 0.0200436 0.0216434 0.0195403 0.0212842 0.01287 -0.0092772 -0.026486 -0.0422297 -0.0589378 -0.0664965 -0.0709641 -0.0728327 -0.0727211 -0.0752633 -0.0773223 -0.0791939 -0.0800222 -0.0736137 -0.0658025 -0.0584071 -0.0504874 -0.0435814 -0.0395529 -0.0379078 -0.0395855 -0.0410438 -0.0390775 -0.0353631 -0.0303079 -0.02617 -0.0258382 -0.0276073 -0.0315855 -0.0343862 -0.0356778 -0.0382732 -0.0364624 -0.0313187 -0.0249471 -0.0113611 0.0014161
255.51 0.00025 0.00622479 0.00766252 0.0156958 0.0429046 0.062283 0.0767924 0.0873888 0.0889171 0.0809427 0.0718183 0.0725737 0.0792575 0.06875 0.0531313 0.043916 0.0474904 0.0474003 0.0352918 0.00774219 -0.016092 -0.0306977 -0.0340344 -0.0417572 -0.0514226 -0.0560911 -0.0610226 -0.0693537 -0.0654735 -0.0438785 -0.0344833 -0.024215 -0.0133603 -0.011988 -0.0163803 -0.0201002 -0.0185822 -0.0207372 -0.033911 -0.0412002 -0.049559 -0.0562409 -0.0595894 -0.0607516 -0.0518191 -0.0361972 -0.0361331 -0.0402087 -0.0349936 -0.0328275 -0.0294187 -0.0238219 -0.0221391 -0.0214815 -0.0201088 -0.0157423 -0.00639252 0.00202716 0.0112082 0.0166733 0.0196417 0.0216924 0.0193267 0.020755 0.0127221 -0.00884857 -0.0258665 -0.041818 -0.0588881 -0.0664855 -0.0706424 -0.0726764 -0.0730941 -0.0757018 -0.0775873 -0.0792888 -0.0800144 -0.0737086 -0.0658917 -0.0584714 -0.0504777 -0.0432703 -0.0391479 -0.0377779 -0.0395654 -0.0408675 -0.0387688 -0.0351674 -0.0303174 -0.0262872 -0.025917 -0.0275944 -0.0315894 -0.0344761 -0.0357228 -0.0382169 -0.0363658 -0.0312267 -0.0249107 -0.0113437 0.00149062
255.5125 0.00025 0.00635146 0.00793619 0.0162621 0.0437461 0.0626898 0.0770612 0.0881435 0.0894281 0.0818644 0.0730306 0.0726036 0.0785508 0.068381 0.0532098 0.0439196 0.0472563 0.0467741 0.0349193 0.00804914 -0.0160064 -0.0312987 -0.0344806 -0.0417133 -0.0513285 -0.0566427 -0.0612191 -0.0686252 -0.0647383 -0.0430743 -0.0334261 -0.0240464 -0.0142783 -0.0127332 -0.0167035 -0.0203641 -0.0189337 -0.0209979 -0.033491 -0.0402743 -0.0488123 -0.0559137 -0.0596543 -0.0613363 -0.0525771 -0.036483 -0.0356076 -0.0399575 -0.0357154 -0.0340765 -0.0304155 -0.0237518 -0.0217173 -0.0214273 -0.0202067 -0.0161337 -0.00712127 0.00135971 0.0106207 0.0160024 0.0192301 0.0217182 0.0190928 0.0201895 0.012529 -0.00842517 -0.0252404 -0.0413916 -0.0588065 -0.066445 -0.070292 -0.0724895 -0.0734664 -0.0761727 -0.0778851 -0.0793864 -0.0799813 -0.0737882 -0.0659834 -0.0585394 -0.0504836 -0.0429794 -0.0387486 -0.0376396 -0.0395383 -0.0406921 -0.0384585 -0.0349588 -0.0303204 -0.0264171 -0.0260083 -0.0275804 -0.0315875 -0.0345655 -0.035772 -0.0381621 -0.0362672 -0.0311308 -0.0248694 -0.0113253 0.00156413
255.515 0.00025 0.00646452 0.00822782 0.0168543 0.0445961 0.0631119 0.0772978 0.0888631 0.0899503 0.0828171 0.0742878 0.0727294 0.077785 0.0678853 0.0533408 0.0439985 0.0469939 0.0460181 0.034383 0.00832113 -0.0157486 -0.031708 -0.0349353 -0.0417999 -0.0512881 -0.0571812 -0.0614165 -0.0678093 -0.063899 -0.0422701 -0.0323411 -0.0238438 -0.0152588 -0.0135874 -0.0170378 -0.0205853 -0.0193275 -0.0212838 -0.033017 -0.0393549 -0.0480861 -0.055554 -0.0596912 -0.0618709 -0.053308 -0.0368589 -0.0351565 -0.039681 -0.0364038 -0.0352937 -0.0314076 -0.0237053 -0.021306 -0.0213813 -0.0202922 -0.0164764 -0.00780348 0.000673204 0.00998007 0.0153151 0.0188085 0.0217165 0.018842 0.0195947 0.0122914 -0.00801245 -0.0246101 -0.0409484 -0.0586893 -0.0663721 -0.0699154 -0.0722738 -0.0738343 -0.0766725 -0.0782144 -0.0794887 -0.0799259 -0.0738528 -0.0660769 -0.058611 -0.0505043 -0.0427102 -0.0383585 -0.037494 -0.0395039 -0.0405173 -0.0381477 -0.0347384 -0.0303162 -0.0265587 -0.0261128 -0.0275668 -0.0315805 -0.0346542 -0.0358249 -0.0381088 -0.0361659 -0.0310305 -0.0248229 -0.0113054 0.00163691
255.5175 0.00025 0.00656313 0.00853928 0.0174714 0.0454493 0.0635571 0.0775009 0.089544 0.0904912 0.0838101 0.0755728 0.0729345 0.0769755 0.0672824 0.05352 0.0441286 0.0466787 0.0451503 0.0337007 0.00854606 -0.0153348 -0.031924 -0.0353833 -0.042001 -0.0513047 -0.057695 -0.0616057 -0.066924 -0.0629581 -0.0414614 -0.0312496 -0.0236207 -0.0162782 -0.0145311 -0.017392 -0.0207723 -0.0197545 -0.0215871 -0.0325009 -0.0384512 -0.0473716 -0.0551578 -0.0597104 -0.0623576 -0.0539953 -0.0373106 -0.0347898 -0.0393912 -0.0370561 -0.0364671 -0.0323887 -0.0236887 -0.020913 -0.0213465 -0.0203703 -0.0167739 -0.00843366 -3.09246e-05 0.00928362 0.0146107 0.0183726 0.021683 0.0185771 0.0189786 0.0120126 -0.00761394 -0.0239765 -0.0404855 -0.0585324 -0.0662647 -0.0695153 -0.0720324 -0.0741948 -0.0771974 -0.0785736 -0.0795972 -0.0798518 -0.0739035 -0.0661715 -0.0586873 -0.0505407 -0.0424647 -0.0379809 -0.0373419 -0.0394607 -0.040342 -0.037837 -0.0345067 -0.0303035 -0.0267101 -0.0262303 -0.027555 -0.0315694 -0.0347419 -0.0358814 -0.0380573 -0.0360621 -0.0309256 -0.0247708 -0.0112833 0.00170931
255.52 0.00025 0.0066477 0.00887078 0.0181136 0.0462987 0.064028 0.0776683 0.0901849 0.0910599 0.0848521 0.0768733 0.0732038 0.0761377 0.0665964 0.0537458 0.0442833 0.0462866 0.044188 0.0328934 0.00871424 -0.0147873 -0.0319473 -0.0358114 -0.0423004 -0.0513786 -0.0581712 -0.0617729 -0.0659873 -0.0619219 -0.0406439 -0.0301699 -0.0233913 -0.0173146 -0.0155436 -0.0177767 -0.0209346 -0.0202032 -0.0219015 -0.0319567 -0.0375719 -0.0466619 -0.0547278 -0.0597228 -0.0627998 -0.0546245 -0.0378247 -0.034516 -0.0391019 -0.0376717 -0.0375875 -0.0333526 -0.0237075 -0.0205446 -0.0213234 -0.0204448 -0.0170308 -0.00900739 -0.000749658 0.00853008 0.013888 0.0179178 0.0216129 0.0183004 0.0183492 0.0116956 -0.007233 -0.0233423 -0.0400013 -0.0583329 -0.0661215 -0.0690956 -0.0717699 -0.0745459 -0.0777441 -0.0789611 -0.0797131 -0.0797616 -0.0739403 -0.0662652 -0.0587673 -0.0505918 -0.0422432 -0.0376173 -0.0371835 -0.0394075 -0.0401655 -0.0375267 -0.0342643 -0.0302808 -0.0268689 -0.0263602 -0.0275459 -0.0315545 -0.0348285 -0.0359414 -0.0380084 -0.0359566 -0.0308166 -0.0247129 -0.0112588 0.00178153
255.5225 0.00025 0.00672014 0.00922196 0.0187767 0.0471394 0.0645235 0.0778003 0.0907818 0.0916623 0.0859523 0.0781813 0.0735226 0.0752861 0.0658531 0.0540158 0.0444346 0.0457948 0.0431475 0.0319849 0.0088169 -0.0141316 -0.0317797 -0.0362075 -0.042685 -0.0515091 -0.0585978 -0.0619044 -0.0650152 -0.0607965 -0.0398087 -0.0291165 -0.0231731 -0.0183464 -0.0166018 -0.0181996 -0.0210819 -0.0206625 -0.0222225 -0.0314015 -0.0367238 -0.0459492 -0.0542669 -0.0597384 -0.0632016 -0.055186 -0.0383874 -0.0343416 -0.0388268 -0.0382515 -0.0386475 -0.0342929 -0.0237641 -0.0202053 -0.0213131 -0.0205195 -0.0172501 -0.00952107 -0.00147699 0.00772319 0.0131503 0.0174418 0.0215011 0.0180128 0.0177116 0.0113425 -0.00687383 -0.022712 -0.0394964 -0.058089 -0.0659412 -0.0686602 -0.071491 -0.0748856 -0.0783092 -0.0793748 -0.0798372 -0.0796576 -0.0739635 -0.0663554 -0.0588485 -0.0506562 -0.0420453 -0.0372705 -0.0370196 -0.0393433 -0.0399876 -0.0372178 -0.0340125 -0.0302478 -0.0270333 -0.0265014 -0.0275398 -0.031536 -0.0349135 -0.0360049 -0.0379627 -0.0358503 -0.0307039 -0.0246495 -0.0112318 0.00185348
255.525 0.00025 0.00678281 0.00959153 0.0194583 0.047966 0.0650431 0.0778989 0.0913341 0.0922976 0.087116 0.0794907 0.0738751 0.0744346 0.065078 0.0543244 0.0445553 0.0451829 0.0420426 0.0309987 0.00884793 -0.0133932 -0.0314217 -0.0365599 -0.0431447 -0.0516931 -0.0589627 -0.0619923 -0.0640221 -0.0595895 -0.0389485 -0.0281031 -0.022982 -0.0193521 -0.0176827 -0.0186675 -0.0212231 -0.0211205 -0.0225462 -0.0308504 -0.0359107 -0.0452243 -0.0537771 -0.0597617 -0.0635652 -0.055674 -0.0389849 -0.0342698 -0.0385797 -0.0387966 -0.0396406 -0.0352031 -0.0238588 -0.0198996 -0.0213173 -0.0205993 -0.0174361 -0.00997033 -0.0022056 0.0068699 0.0124032 0.0169426 0.021343 0.0177126 0.0170687 0.0109551 -0.00654068 -0.0220897 -0.0389721 -0.0577977 -0.0657207 -0.0682121 -0.0712 -0.0752119 -0.0788881 -0.0798113 -0.0799694 -0.0795418 -0.073974 -0.0664405 -0.0589294 -0.0507333 -0.0418723 -0.0369437 -0.0368517 -0.0392672 -0.0398074 -0.0369106 -0.0337527 -0.0302045 -0.0272014 -0.0266529 -0.0275374 -0.0315146 -0.034997 -0.0360718 -0.0379208 -0.0357436 -0.030588 -0.0245809 -0.0112024 0.00192498
255.5275 0.00025 0.00683544 0.00997871 0.0201569 0.0487756 0.0655856 0.0779663 0.0918436 0.0929642 0.0883466 0.080798 0.0742422 0.0735955 0.0642926 0.054664 0.0446237 0.0444366 0.0408856 0.0299577 0.00880244 -0.0125966 -0.0308756 -0.0368572 -0.0436713 -0.0519255 -0.0592576 -0.0620305 -0.0630188 -0.0583144 -0.0380603 -0.0271425 -0.0228312 -0.0203125 -0.0187666 -0.0191892 -0.0213685 -0.0215665 -0.0228692 -0.030317 -0.0351359 -0.0444837 -0.0532633 -0.0597917 -0.0638915 -0.0560859 -0.039605 -0.0343006 -0.0383716 -0.0393073 -0.0405613 -0.0360767 -0.0239914 -0.0196331 -0.0213385 -0.0206894 -0.0175927 -0.0103523 -0.00293088 0.00597511 0.0116497 0.0164167 0.0211354 0.0173987 0.0164238 0.0105356 -0.00623755 -0.0214806 -0.0384299 -0.0574556 -0.0654566 -0.0677542 -0.0709016 -0.0755232 -0.079476 -0.0802674 -0.08011 -0.0794162 -0.0739732 -0.0665194 -0.0590089 -0.0508222 -0.0417248 -0.0366394 -0.0366801 -0.0391772 -0.0396232 -0.036605 -0.0334861 -0.0301507 -0.0273715 -0.0268144 -0.0275401 -0.0314914 -0.0350785 -0.0361414 -0.0378825 -0.0356365 -0.0304691 -0.0245074 -0.0111705 0.00199592
255.53 0.00025 0.00687902 0.0103813 0.0208725 0.0495655 0.066152 0.0780064 0.0923133 0.0936592 0.0896441 0.0821024 0.0746091 0.0727801 0.0635143 0.0550273 0.044622 0.0435459 0.0396858 0.0288809 0.00867534 -0.011765 -0.0301472 -0.0370893 -0.0442567 -0.052198 -0.0594759 -0.0620139 -0.0620129 -0.0569854 -0.0371436 -0.0262441 -0.0227302 -0.0212103 -0.0198353 -0.019772 -0.0215278 -0.0219919 -0.0231888 -0.0298119 -0.0344002 -0.0437283 -0.052733 -0.0598253 -0.0641813 -0.0564228 -0.0402372 -0.0344312 -0.0382117 -0.0397853 -0.0414056 -0.0369079 -0.0241605 -0.0194089 -0.0213793 -0.0207935 -0.0177234 -0.010667 -0.00365118 0.0050429 0.0108909 0.0158607 0.0208759 0.017072 0.0157813 0.0100871 -0.00596798 -0.02089 -0.0378726 -0.0570604 -0.0651461 -0.0672895 -0.0706011 -0.0758187 -0.0800691 -0.0807405 -0.0802589 -0.0792824 -0.0739623 -0.0665911 -0.0590847 -0.0509209 -0.041602 -0.0363586 -0.0365062 -0.0390731 -0.0394342 -0.036301 -0.0332139 -0.0300869 -0.0275423 -0.0269851 -0.0275487 -0.0314664 -0.0351573 -0.036213 -0.0378477 -0.0355291 -0.0303471 -0.0244287 -0.0111358 0.00206635
255.5325 0.00025 0.0069133 0.0107948 0.0216094 0.0503355 0.0667405 0.0780287 0.0927474 0.094379 0.0910072 0.0834049 0.0749696 0.0719975 0.0627588 0.0554061 0.0445348 0.0425045 0.0384491 0.0277835 0.00846316 -0.0109215 -0.0292469 -0.0372463 -0.0448913 -0.0524986 -0.0596119 -0.0619406 -0.0610076 -0.0556181 -0.0362012 -0.025415 -0.0226846 -0.0220307 -0.0208712 -0.0204193 -0.0217071 -0.0223874 -0.0235015 -0.0293428 -0.0337019 -0.0429599 -0.0521921 -0.0598578 -0.0644356 -0.0566884 -0.0408713 -0.0346568 -0.0381088 -0.0402341 -0.0421718 -0.0376925 -0.0243641 -0.0192294 -0.0214416 -0.0209147 -0.017832 -0.010917 -0.00436482 0.00407953 0.0101292 0.0152708 0.0205604 0.0167308 0.0151438 0.00961288 -0.00573368 -0.0203213 -0.0373038 -0.0566106 -0.0647862 -0.0668206 -0.0703038 -0.0760986 -0.0806643 -0.0812282 -0.0804167 -0.0791433 -0.0739433 -0.0666553 -0.0591552 -0.0510277 -0.041503 -0.0361035 -0.0363322 -0.0389548 -0.0392401 -0.0359988 -0.0329373 -0.0300136 -0.0277125 -0.0271639 -0.0275632 -0.0314401 -0.035233 -0.0362861 -0.0378166 -0.0354217 -0.0302221 -0.0243449 -0.0110981 0.00213648
255.535 0.00025 0.00694066 0.0112144 0.0223707 0.0510844 0.0673524 0.0780411 0.0931471 0.0951197 0.0924336 0.0847054 0.0753211 0.071256 0.0620389 0.0557908 0.0443518 0.0413122 0.0371784 0.0266746 0.00816531 -0.0100852 -0.0281885 -0.0373175 -0.0455602 -0.0528142 -0.0596649 -0.0618121 -0.0600028 -0.0542291 -0.0352383 -0.024659 -0.0226945 -0.0227636 -0.0218626 -0.0211332 -0.0219122 -0.0227479 -0.023803 -0.0289146 -0.0330404 -0.042184 -0.0516455 -0.0598807 -0.0646532 -0.0568869 -0.0414995 -0.03497 -0.0380698 -0.0406573 -0.0428586 -0.0384274 -0.0246001 -0.0190959 -0.0215264 -0.021057 -0.0179232 -0.0111065 -0.00507095 0.00309134 0.00936733 0.0146432 0.0201856 0.0163731 0.0145131 0.00911631 -0.00553547 -0.019777 -0.0367264 -0.056105 -0.0643733 -0.0663499 -0.0700147 -0.0763637 -0.0812579 -0.0817273 -0.0805842 -0.0790015 -0.0739186 -0.0667128 -0.0592197 -0.0511421 -0.0414279 -0.0358758 -0.0361595 -0.0388224 -0.0390399 -0.0356983 -0.0326574 -0.0299314 -0.0278805 -0.0273493 -0.0275842 -0.0314131 -0.0353054 -0.0363603 -0.0377891 -0.0353145 -0.0300947 -0.0242565 -0.0110574 0.00220634
255.5375 0.00025 0.00696152 0.0116334 0.0231629 0.0518101 0.0679877 0.0780504 0.0935107 0.0958763 0.0939202 0.0860024 0.0756614 0.0705609 0.0613621 0.0561716 0.0440695 0.0399725 0.0358742 0.0255593 0.00778457 -0.00926971 -0.0269917 -0.0372917 -0.0462436 -0.0531346 -0.0596375 -0.0616312 -0.0589953 -0.0528316 -0.0342622 -0.0239781 -0.0227577 -0.0234047 -0.0228017 -0.0219133 -0.0221475 -0.0230703 -0.0240881 -0.02853 -0.0324171 -0.0414115 -0.0510978 -0.0598835 -0.0648324 -0.0570236 -0.0421155 -0.0353616 -0.038097 -0.0410574 -0.0434662 -0.0391108 -0.024865 -0.0190074 -0.0216352 -0.0212247 -0.0180009 -0.0112393 -0.00576749 0.00208569 0.00860828 0.0139763 0.01975 0.0159987 0.0138919 0.00860087 -0.00537394 -0.0192587 -0.0361439 -0.0555431 -0.0639036 -0.0658788 -0.0697383 -0.0766139 -0.081846 -0.0822345 -0.0807615 -0.0788591 -0.0738904 -0.0667648 -0.0592781 -0.0512635 -0.0413767 -0.0356768 -0.0359892 -0.0386757 -0.0388327 -0.0353993 -0.0323756 -0.0298409 -0.0280449 -0.0275404 -0.0276127 -0.0313867 -0.0353747 -0.036435 -0.0377645 -0.0352077 -0.0299653 -0.0241638 -0.011014 0.00227593
255.54 0.00025 0.00697524 0.0120483 0.0239876 0.0525117 0.068645 0.078063 0.0938365 0.0966436 0.0954618 0.0872927 0.0759915 0.0699158 0.0607344 0.056541 0.043689 0.0384927 0.0345347 0.0244383 0.00732717 -0.00848707 -0.0256857 -0.0371633 -0.0469142 -0.0534492 -0.0595337 -0.0614001 -0.0579795 -0.0514346 -0.0332846 -0.0233727 -0.0228688 -0.0239529 -0.023682 -0.022755 -0.0224139 -0.0233528 -0.0243516 -0.0281891 -0.0318347 -0.040657 -0.0505527 -0.0598567 -0.0649727 -0.0571069 -0.0427144 -0.0358208 -0.0381914 -0.0414392 -0.043996 -0.0397417 -0.025156 -0.0189629 -0.0217679 -0.0214193 -0.0180682 -0.0113189 -0.00645088 0.00107328 0.00785692 0.0132711 0.0192532 0.015607 0.0132819 0.00806915 -0.00524908 -0.0187678 -0.0355607 -0.0549259 -0.0633736 -0.0654081 -0.0694786 -0.0768492 -0.0824253 -0.0827463 -0.0809479 -0.0787174 -0.0738594 -0.0668114 -0.0593296 -0.0513907 -0.0413492 -0.0355076 -0.0358232 -0.0385148 -0.0386177 -0.0351014 -0.032093 -0.0297433 -0.0282048 -0.0277361 -0.0276489 -0.0313615 -0.0354409 -0.03651 -0.0377429 -0.0351014 -0.0298339 -0.0240669 -0.0109675 0.00234528
255.5425 0.00025 0.00698378 0.0124505 0.0248477 0.05319 0.0693222 0.07809 0.0941258 0.0974162 0.0970523 0.0885716 0.0763149 0.0693236 0.0601597 0.0568921 0.0432146 0.0368842 0.0331573 0.0233099 0.0067994 -0.00774979 -0.0243046 -0.0369279 -0.047537 -0.0537465 -0.0593617 -0.0611228 -0.0569514 -0.0500455 -0.0323186 -0.0228416 -0.0230179 -0.0244108 -0.0245012 -0.0236513 -0.0227119 -0.0235974 -0.0245878 -0.02789 -0.0312989 -0.0399352 -0.050013 -0.0597918 -0.0650739 -0.057145 -0.0432931 -0.0363364 -0.0383536 -0.0418085 -0.0444514 -0.0403194 -0.0254707 -0.0189611 -0.0219232 -0.0216418 -0.0181284 -0.0113508 -0.00711977 6.30965e-05 0.00711687 0.0125279 0.0186945 0.0151954 0.0126833 0.0075235 -0.00516039 -0.0183053 -0.0349818 -0.0542555 -0.0627802 -0.0649369 -0.0692382 -0.0770704 -0.0829919 -0.0832581 -0.0811424 -0.0785777 -0.0738264 -0.0668531 -0.059373 -0.0515216 -0.0413445 -0.0353693 -0.0356638 -0.0383403 -0.038394 -0.0348037 -0.0318103 -0.0296397 -0.0283594 -0.0279351 -0.0276929 -0.0313383 -0.035504 -0.0365852 -0.0377244 -0.0349958 -0.0297007 -0.0239656 -0.0109179 0.00241451
255.545 0.00025 0.00698725 0.0128365 0.0257458 0.0538442 0.070015 0.0781444 0.0943806 0.0981924 0.098684 0.0898327 0.0766349 0.0687871 0.0596373 0.0572184 0.0426529 0.0351594 0.0317401 0.0221694 0.00620961 -0.00706622 -0.0228864 -0.0365843 -0.0480707 -0.054017 -0.0591339 -0.0608035 -0.055909 -0.0486694 -0.0313746 -0.0223817 -0.0231941 -0.0247858 -0.0252605 -0.0245928 -0.023043 -0.0238076 -0.02479 -0.0276292 -0.0308153 -0.0392597 -0.0494791 -0.0596798 -0.0651345 -0.0571453 -0.0438503 -0.036897 -0.0385817 -0.042171 -0.0448357 -0.0408431 -0.0258071 -0.0190004 -0.0221003 -0.0218937 -0.0181858 -0.0113433 -0.00777489 -0.000940024 0.0063898 0.0117473 0.0180727 0.0147616 0.012096 0.00696693 -0.00510649 -0.0178702 -0.034411 -0.0535356 -0.0621207 -0.0644647 -0.0690198 -0.077278 -0.0835413 -0.0837646 -0.0813435 -0.0784417 -0.0737925 -0.0668903 -0.0594073 -0.0516544 -0.0413612 -0.0352621 -0.0355127 -0.0381531 -0.0381608 -0.0345051 -0.0315281 -0.029531 -0.0285075 -0.0281363 -0.0277447 -0.0313176 -0.0355641 -0.0366606 -0.0377092 -0.034891 -0.0295657 -0.0238602 -0.0108649 0.00248382
255.5475 0.00025 0.00698682 0.0132029 0.0266854 0.0544732 0.0707135 0.078238 0.0946066 0.0989724 0.100348 0.0910684 0.0769532 0.06831 0.0591641 0.057513 0.0420138 0.0333334 0.0302796 0.0210098 0.00557032 -0.00644239 -0.0214695 -0.0361337 -0.0484731 -0.0542508 -0.0588646 -0.0604448 -0.0548516 -0.047306 -0.0304613 -0.0219896 -0.0233865 -0.025089 -0.0259627 -0.0255662 -0.0234064 -0.023987 -0.0249509 -0.027401 -0.0303893 -0.0386418 -0.04895 -0.0595132 -0.0651523 -0.0571148 -0.044386 -0.0374919 -0.0388727 -0.0425323 -0.0451529 -0.0413133 -0.0261647 -0.0190791 -0.0222974 -0.0221755 -0.0182466 -0.0113065 -0.00841714 -0.00193115 0.00567774 0.0109312 0.0173891 0.0143041 0.01152 0.00640302 -0.00508507 -0.0174598 -0.0338506 -0.0527711 -0.0613935 -0.0639903 -0.0688262 -0.0774738 -0.0840712 -0.0842619 -0.0815504 -0.078311 -0.0737584 -0.0669234 -0.0594325 -0.0517876 -0.0413979 -0.0351858 -0.0353717 -0.0379544 -0.0379176 -0.0342049 -0.0312466 -0.029418 -0.0286486 -0.0283383 -0.0278043 -0.0312998 -0.035621 -0.0367355 -0.037697 -0.0347872 -0.0294292 -0.0237509 -0.0108084 0.00255341
255.55 0.00025 0.00698279 0.0135495 0.0276692 0.0550744 0.0714041 0.0783811 0.0948123 0.0997586 0.102035 0.092269 0.0772705 0.0678979 0.0587375 0.0577693 0.0413097 0.0314228 0.028769 0.0198242 0.00489542 -0.00588211 -0.0200901 -0.0355813 -0.0487063 -0.0544349 -0.0585694 -0.0600505 -0.0537798 -0.0459547 -0.0295859 -0.0216605 -0.0235852 -0.0253343 -0.0266124 -0.0265564 -0.0237996 -0.0241384 -0.0250634 -0.0272011 -0.0300286 -0.0380921 -0.0484264 -0.0592875 -0.0651264 -0.0570599 -0.044899 -0.0381103 -0.0392229 -0.0428981 -0.0454075 -0.0417301 -0.0265435 -0.0191961 -0.0225105 -0.022485 -0.0183165 -0.0112508 -0.00904717 -0.00290439 0.00498325 0.0100839 0.0166461 0.0138214 0.0109562 0.00583421 -0.00509581 -0.0170729 -0.0333028 -0.0519674 -0.060598 -0.0635118 -0.0686597 -0.077661 -0.0845802 -0.0847468 -0.0817624 -0.0781875 -0.0737252 -0.0669535 -0.0594484 -0.0519199 -0.0414532 -0.03514 -0.0352423 -0.0377454 -0.0376642 -0.0339023 -0.0309665 -0.0293019 -0.0287819 -0.0285399 -0.0278714 -0.0312855 -0.0356747 -0.03681 -0.037688 -0.0346847 -0.0292915 -0.0236376 -0.0107481 0.00262337
255.5525 0.00025 0.0069772 0.0138821 0.0286917 0.0556439 0.0720697 0.0785829 0.0950126 0.100555 0.103736 0.0934241 0.0775852 0.0675562 0.058357 0.0579807 0.0405534 0.0294445 0.0271996 0.0186057 0.00419891 -0.00538768 -0.0187818 -0.0349365 -0.0487394 -0.0545532 -0.0582636 -0.0596249 -0.0526965 -0.0446167 -0.0287519 -0.021388 -0.0237826 -0.0255379 -0.0272157 -0.0275469 -0.0242187 -0.0242648 -0.0251225 -0.0270273 -0.0297406 -0.0376188 -0.0479091 -0.0590003 -0.0650552 -0.0569856 -0.0453892 -0.0387418 -0.0396266 -0.0432729 -0.0456051 -0.0420937 -0.0269431 -0.0193505 -0.0227345 -0.0228175 -0.0183992 -0.011186 -0.00966548 -0.00385394 0.00430843 0.00920876 0.0158452 0.0133102 0.0104021 0.00526184 -0.00513904 -0.0167095 -0.0327697 -0.0511313 -0.0597351 -0.0630269 -0.0685216 -0.0778423 -0.0850674 -0.0852163 -0.0819782 -0.0780731 -0.0736941 -0.0669818 -0.0594555 -0.05205 -0.0415259 -0.0351239 -0.0351266 -0.0375279 -0.0374 -0.0335961 -0.0306878 -0.0291837 -0.028907 -0.02874 -0.0279457 -0.0312751 -0.0357254 -0.0368842 -0.0376823 -0.0345836 -0.0291529 -0.0235206 -0.0106842 0.0026937
255.555 0.00025 0.00697413 0.0142056 0.0297474 0.0561756 0.0726917 0.078848 0.0952278 0.101371 0.105442 0.094524 0.0778921 0.0672878 0.0580255 0.0581398 0.0397571 0.0274162 0.0255646 0.0173471 0.00349265 -0.004962 -0.0175741 -0.03421 -0.0485497 -0.0545851 -0.05796 -0.0591745 -0.0516046 -0.043292 -0.0279581 -0.0211653 -0.0239744 -0.0257184 -0.0277814 -0.0285199 -0.0246596 -0.0243689 -0.0251263 -0.0268784 -0.0295294 -0.0372253 -0.0473998 -0.0586512 -0.0649375 -0.056896 -0.045857 -0.0393768 -0.0400778 -0.0436607 -0.0457521 -0.042405 -0.0273644 -0.0195426 -0.0229647 -0.0231671 -0.0184987 -0.0111225 -0.0102716 -0.00477537 0.00365307 0.00830927 0.0149876 0.0127656 0.0098539 0.00468701 -0.00521304 -0.0163674 -0.0322525 -0.0502711 -0.0588087 -0.0625338 -0.068412 -0.0780196 -0.0855321 -0.0856679 -0.0821962 -0.0779688 -0.0736657 -0.0670091 -0.0594547 -0.052177 -0.0416143 -0.0351363 -0.0350252 -0.0373034 -0.037125 -0.033285 -0.0304102 -0.0290644 -0.0290239 -0.0289376 -0.028027 -0.0312692 -0.0357734 -0.036958 -0.0376799 -0.0344841 -0.0290135 -0.0234002 -0.0106167 0.00276432
255.5575 0.00025 0.00697369 0.0145286 0.0308306 0.0566637 0.0732512 0.0791801 0.0954784 0.10222 0.107145 0.0955626 0.0781839 0.067095 0.0577477 0.0582395 0.0389334 0.0253562 0.0238575 0.0160401 0.00278556 -0.00460767 -0.0164885 -0.0334128 -0.0481247 -0.0545062 -0.0576663 -0.0587079 -0.0505075 -0.0419812 -0.0272016 -0.0209855 -0.0241588 -0.0258949 -0.0283176 -0.0294577 -0.0251176 -0.0244517 -0.0250743 -0.026754 -0.0293963 -0.0369129 -0.0469021 -0.0582427 -0.0647719 -0.0567949 -0.0463021 -0.040006 -0.0405701 -0.0440655 -0.0458562 -0.0426654 -0.0278094 -0.0197747 -0.0231959 -0.0235263 -0.0186193 -0.011072 -0.0108657 -0.00566571 0.00301659 0.00739059 0.0140769 0.0121838 0.00930869 0.00411234 -0.00531529 -0.0160437 -0.0317496 -0.0493941 -0.0578234 -0.0620293 -0.0683296 -0.0781944 -0.0859728 -0.0860989 -0.082415 -0.0778764 -0.0736412 -0.0670362 -0.059446 -0.0522994 -0.0417169 -0.035175 -0.0349389 -0.037074 -0.0368396 -0.0329682 -0.0301338 -0.0289454 -0.0291329 -0.0291317 -0.0281148 -0.0312681 -0.0358186 -0.0370308 -0.0376805 -0.0343863 -0.0288736 -0.0232766 -0.0105458 0.00283518
255.56 0.00025 0.00697761 0.0148574 0.0319347 0.057102 0.0737344 0.0795755 0.0957848 0.103114 0.108834 0.0965354 0.0784515 0.0669785 0.0575302 0.0582737 0.0380946 0.023284 0.0220712 0.014677 0.00208571 -0.00432518 -0.015539 -0.0325564 -0.0474662 -0.0542939 -0.0573822 -0.0582342 -0.0494106 -0.0406867 -0.0264776 -0.0208408 -0.0243362 -0.0260841 -0.0288317 -0.0303446 -0.0255858 -0.0245121 -0.024969 -0.0266561 -0.02934 -0.0366813 -0.0464226 -0.0577792 -0.0645564 -0.056684 -0.0467234 -0.0406206 -0.0410968 -0.0444903 -0.0459252 -0.0428763 -0.0282796 -0.0200493 -0.0234235 -0.0238866 -0.0187651 -0.011048 -0.0114488 -0.00652206 0.00239833 0.00645851 0.0131189 0.0115627 0.00876458 0.00353988 -0.00544454 -0.0157361 -0.0312579 -0.0485059 -0.0567848 -0.0615093 -0.0682715 -0.0783683 -0.0863887 -0.0865063 -0.0826325 -0.0777974 -0.0736221 -0.0670636 -0.0594296 -0.0524163 -0.0418319 -0.0352387 -0.0348689 -0.0368424 -0.0365447 -0.0326451 -0.0298582 -0.0288275 -0.0292342 -0.0293218 -0.0282088 -0.031272 -0.0358608 -0.0371025 -0.037684 -0.0342901 -0.028733 -0.0231499 -0.0104714 0.00290637
255.5625 0.00025 0.00698777 0.0151966 0.0330522 0.0574832 0.0741304 0.080029 0.0961694 0.104066 0.110503 0.0974406 0.0786857 0.0669369 0.0573809 0.0582388 0.03725 0.0212151 0.020199 0.0132527 0.00140045 -0.00411319 -0.014733 -0.0316547 -0.0465859 -0.0539291 -0.0570991 -0.0577611 -0.0483192 -0.03941 -0.0257794 -0.0207232 -0.0245106 -0.0263022 -0.0293307 -0.031167 -0.0260559 -0.0245489 -0.0248169 -0.0265875 -0.0293543 -0.0365276 -0.0459693 -0.0572669 -0.0642892 -0.0565634 -0.04712 -0.0412135 -0.0416504 -0.044938 -0.0459664 -0.0430379 -0.0287746 -0.0203695 -0.0236438 -0.0242393 -0.0189378 -0.0110615 -0.012022 -0.00734225 0.00179729 0.00551916 0.0121198 0.0108995 0.00821756 0.00297028 -0.00559932 -0.0154432 -0.0307739 -0.0476128 -0.0557001 -0.0609696 -0.0682344 -0.0785423 -0.0867792 -0.0868873 -0.082846 -0.0777328 -0.0736094 -0.0670923 -0.0594067 -0.0525277 -0.0419588 -0.0353264 -0.0348159 -0.0366105 -0.0362404 -0.0323145 -0.0295828 -0.0287114 -0.0293283 -0.0295072 -0.0283086 -0.0312811 -0.0359 -0.0371727 -0.0376902 -0.0341953 -0.0285919 -0.0230204 -0.0103936 0.00297801
255.565 0.00025 0.0070061 0.015554 0.0341661 0.0578016 0.0744332 0.0805351 0.0966518 0.105083 0.112145 0.0982788 0.0788776 0.0669675 0.0573075 0.0581345 0.0364053 0.0191629 0.0182362 0.0117643 0.000735431 -0.00397012 -0.0140734 -0.0307213 -0.0455021 -0.053398 -0.0568027 -0.0572943 -0.0472388 -0.0381517 -0.0250991 -0.0206244 -0.0246872 -0.0265629 -0.0298212 -0.0319158 -0.0265173 -0.0245602 -0.0246279 -0.0265502 -0.0294292 -0.0364461 -0.0455509 -0.0567134 -0.0639692 -0.0564324 -0.0474899 -0.0417781 -0.0422244 -0.0454096 -0.0459873 -0.0431509 -0.0292931 -0.0207378 -0.0238541 -0.0245753 -0.0191375 -0.0111226 -0.012587 -0.00812592 0.00121181 0.0045794 0.0110867 0.0101914 0.00766276 0.00240415 -0.0057772 -0.0151635 -0.0302939 -0.0467213 -0.0545788 -0.0604075 -0.0682138 -0.0787171 -0.0871445 -0.0872402 -0.0830532 -0.077683 -0.0736043 -0.0671234 -0.0593782 -0.0526335 -0.0420967 -0.0354355 -0.0347794 -0.0363798 -0.0359275 -0.0319756 -0.029307 -0.0285979 -0.0294157 -0.0296875 -0.0284135 -0.0312955 -0.0359364 -0.0372412 -0.037699 -0.0341019 -0.0284502 -0.0228882 -0.0103123 0.0030503
255.5675 0.00025 0.00703591 0.0159355 0.0352598 0.0580531 0.0746448 0.0810836 0.0972471 0.106174 0.113755 0.0990525 0.0790203 0.0670687 0.0573158 0.0579617 0.0355646 0.0171398 0.016179 0.010212 9.39176e-05 -0.00389465 -0.0135588 -0.0297673 -0.0442374 -0.0526969 -0.0564755 -0.0568331 -0.046176 -0.0369127 -0.0244294 -0.0205365 -0.0248723 -0.0268778 -0.0303081 -0.0325845 -0.0269578 -0.0245437 -0.0244149 -0.0265463 -0.0295526 -0.0364302 -0.0451766 -0.0561283 -0.0635969 -0.056289 -0.047831 -0.0423088 -0.0428127 -0.0459053 -0.0459954 -0.0432178 -0.0298335 -0.0211565 -0.0240534 -0.0248878 -0.019364 -0.0112407 -0.0131461 -0.00887373 0.000639749 0.00364595 0.0100273 0.009437 0.00709618 0.00184258 -0.00597595 -0.0148963 -0.0298132 -0.0458362 -0.0534317 -0.0598213 -0.0682048 -0.0788932 -0.0874855 -0.0875644 -0.0832519 -0.0776479 -0.0736078 -0.0671575 -0.0593448 -0.0527329 -0.0422443 -0.0355637 -0.0347589 -0.0361529 -0.0356078 -0.0316283 -0.0290303 -0.0284877 -0.029497 -0.029862 -0.0285228 -0.0313154 -0.0359701 -0.0373076 -0.0377102 -0.0340099 -0.0283082 -0.0227535 -0.0102275 0.00312338