255.5025 0.00025 1379.72 1076.24 1712.52 1899.95 1815.22 1587.23 1385.07 1178.43 1082.4 974.814 960.481 904.298 901.122 835.747 797.38 802.573 737.03 693.999 705.089 721.381 699.723 651.967 622.706 584.456 546.446 548.391 543.384 550.836 526.705 507.047 521.723 491.492 464.479 444.498 441.881 416.88 396.417 382.879 384.439 374.945 377.941 359.95 340.623 354.009 350.452 358.082 357.987 341.868 351.395 334.111 316.705 324.551 329.194 336.235 341.629 329.272 332.978 314.609 286.582 277.815 294.727 289.405 277.024 263.207 252.799 245.838 234.458 223.473 225.841 215.058 194.588 193.827 199.975 203.126 186.587 181.997 169.757 151.015 145.191 141.385 129.348 121.728 110.814 104.796 111 106.47 93.7261 88.354 82.9852 76.3666 66.863 57.3969 51.8951 50.3452 50.7273 51.934 51.6627 53.6476 55.8284 19.1963
255.505 0.00025 1379.77 1078.8 1715.66 1908.11 1815.44 1587.48 1384.6 1177.78 1080.8 974.236 960.778 904.279 899.495 838.188 800.396 800.921 737.285 695.045 705.256 721.726 704.155 652.649 623.861 582.412 543.689 549.909 545.152 550.662 523.981 507.762 523.144 491.36 464.81 442.945 441.464 420.77 397.109 382.042 384.524 373.346 377.62 359.612 339.991 353.24 349.992 357.436 357.286 342.126 352.338 335.522 317.279 324.49 327.351 335.89 342.614 329.225 333.954 315.509 288.584 278.975 295.308 289.886 276.332 261.65 252.636 245.975 234.51 223.697 225.67 215.842 194.914 193.198 198.983 202.648 186.677 180.667 170.916 151.36 145.034 141.61 129.4 121.666 110.945 104.739 110.709 106.252 93.4026 88.052 82.9765 76.6318 67.2584 57.5842 52.0866 50.4609 50.5757 51.9441 51.7722 53.7445 55.7973 19.1693
255.5075 0.00025 1377.91 1080.53 1718.16 1915.96 1816.31 1586.83 1383.56 1177.65 1079.73 974.243 960.625 905.263 897.198 840.276 803.894 798.58 738.177 695.659 705.51 722.499 707.649 653.791 624.561 580.927 540.784 551.335 547.1 549.885 521.872 508.634 524.454 490.832 465.536 441.401 440.654 424.863 397.727 381.483 384.613 371.811 377.274 359.293 339.67 352.371 349.582 356.905 356.327 342.229 353.342 336.885 317.746 324.488 325.418 335.536 343.494 329.225 334.813 316.335 290.583 280.211 295.894 290.402 275.602 260.095 252.451 246.063 234.538 223.963 225.551 216.563 195.301 192.567 198.058 201.948 186.914 179.301 171.918 151.834 144.899 141.783 129.506 121.57 111.082 104.699 110.438 106.053 93.0731 87.7323 82.9583 76.8785 67.6453 57.7939 52.2688 50.5907 50.4289 51.9456 51.877 53.8437 55.7696 19.1428
255.51 0.00025 1375.77 1082.16 1720.71 1923.6 1817.79 1585.11 1382.06 1177.84 1079.32 974.851 960.039 907.174 894.542 841.954 807.386 796.033 739.604 695.81 705.778 723.894 709.836 655.613 624.804 579.908 537.936 552.57 549.263 548.439 520.5 509.59 525.616 489.989 466.57 439.975 439.595 428.949 398.287 381.244 384.716 370.362 376.834 359.034 339.659 351.422 349.213 356.495 355.178 342.114 354.381 338.229 318.134 324.44 323.487 335.173 344.226 329.316 335.513 317.108 292.56 281.517 296.472 290.943 274.836 258.553 252.231 246.1 234.543 224.267 225.483 217.218 195.736 191.947 197.212 201.042 187.255 177.965 172.713 152.434 144.798 141.906 129.663 121.443 111.228 104.67 110.189 105.871 92.7387 87.3965 82.9289 77.1094 68.0186 58.0271 52.4424 50.7322 50.2891 51.9394 51.9777 53.9451 55.7454 19.117
255.5125 0.00025 1374.79 1083.55 1723.43 1931.3 1819.79 1582.36 1380.26 1178.18 1079.55 976.135 959.059 909.871 891.817 843.277 810.404 793.72 741.511 695.47 706.004 725.934 710.554 658.238 624.654 579.199 535.378 553.504 551.643 546.389 519.82 510.61 526.538 488.948 467.775 438.771 438.478 432.806 398.803 381.344 384.858 369.007 376.233 358.873 339.915 350.437 348.874 356.192 353.91 341.764 355.414 339.573 318.483 324.25 321.661 334.791 344.775 329.535 336.026 317.854 294.503 282.898 297.028 291.499 274.046 257.041 251.972 246.088 234.535 224.604 225.463 217.802 196.201 191.35 196.447 199.952 187.644 176.722 173.269 153.145 144.745 141.982 129.865 121.288 111.385 104.649 109.964 105.704 92.4032 87.0478 82.8855 77.3266 68.3748 58.2851 52.6094 50.8827 50.158 51.9261 52.0749 54.0492 55.725 19.0916
255.515 0.00025 1374.18 1084.88 1726.04 1939.15 1822.19 1578.79 1378.22 1178.63 1080.32 978.108 957.757 913.17 889.26 844.343 812.575 791.922 743.873 694.626 706.139 728.472 709.883 661.61 624.24 578.631 533.328 554.053 554.191 543.93 519.672 511.721 527.137 487.829 469.019 437.875 437.513 436.219 399.276 381.785 385.066 367.735 375.425 358.858 340.373 349.475 348.559 355.984 352.574 341.194 356.384 340.932 318.835 323.845 320.035 334.381 345.124 329.912 336.341 318.582 296.395 284.359 297.549 292.047 273.248 255.576 251.664 246.034 234.52 224.964 225.487 218.309 196.674 190.789 195.755 198.712 188.025 175.628 173.569 153.94 144.753 142.021 130.108 121.108 111.555 104.63 109.764 105.553 92.0698 86.689 82.8265 77.5324 68.7097 58.5666 52.7729 51.0399 50.0373 51.9057 52.1683 54.1558 55.7086 19.0666
255.5175 0.00025 1373.53 1086.15 1728.54 1947.25 1824.87 1574.75 1375.97 1179.26 1081.36 980.732 956.278 916.885 887.002 845.261 813.729 790.726 746.684 693.347 706.067 731.25 708.137 665.463 623.773 578.072 531.896 554.188 556.77 541.361 519.853 512.965 527.362 486.717 470.19 437.328 436.887 439.006 399.712 382.559 385.355 366.542 374.376 359.014 340.957 348.597 348.265 355.856 351.198 340.434 357.235 342.309 319.224 323.182 318.661 333.93 345.273 330.456 336.461 319.292 298.227 285.907 298.021 292.553 272.447 254.171 251.301 245.945 234.499 225.337 225.553 218.739 197.131 190.284 195.133 197.362 188.341 174.724 173.615 154.784 144.832 142.035 130.386 120.906 111.739 104.612 109.59 105.421 91.7407 86.3209 82.7505 77.7294 69.0201 58.8685 52.9353 51.2002 49.9284 51.8788 52.2568 54.2642 55.6971 19.0421
255.52 0.00025 1373.92 1087.47 1730.8 1955.63 1827.72 1570.57 1373.51 1180.28 1082.43 983.884 954.811 920.794 885.127 846.149 813.869 790.064 749.913 691.804 705.659 733.94 705.801 669.418 623.517 577.451 531.102 553.953 559.173 539.054 520.139 514.347 527.24 485.651 471.19 437.157 436.767 441.03 400.106 383.645 385.726 365.43 373.082 359.336 341.6 347.859 347.997 355.787 349.808 339.533 357.927 343.686 319.669 322.276 317.553 333.426 345.231 331.159 336.411 319.973 299.992 287.537 298.432 292.995 271.657 252.831 250.865 245.83 234.48 225.716 225.661 219.093 197.555 189.849 194.578 195.948 188.54 174.032 173.425 155.636 144.986 142.037 130.689 120.687 111.937 104.595 109.44 105.308 91.4181 85.9449 82.6551 77.9201 69.3044 59.1874 53.1004 51.3605 49.8309 51.846 52.3408 54.3742 55.6911 19.0182
255.5225 0.00025 1375.62 1088.93 1732.88 1964.3 1830.68 1566.51 1370.9 1181.94 1083.35 987.377 953.607 924.649 883.707 847.082 813.107 789.798 753.445 690.245 704.817 736.186 703.44 672.979 623.756 576.739 530.886 553.472 561.15 537.355 520.348 515.836 526.85 484.622 471.95 437.368 437.253 442.224 400.463 385.016 386.146 364.419 371.576 359.802 342.254 347.304 347.768 355.765 348.421 338.543 358.442 345.031 320.177 321.188 316.69 332.863 345.016 332.007 336.213 320.609 301.688 289.258 298.781 293.352 270.885 251.565 250.346 245.698 234.46 226.09 225.809 219.375 197.935 189.495 194.082 194.51 188.584 173.558 173.036 156.454 145.215 142.041 131.013 120.455 112.148 104.581 109.315 105.215 91.1046 85.5624 82.5391 78.1072 69.5635 59.5201 53.2726 51.5175 49.7445 51.8082 52.4211 54.4855 55.6903 18.9949
255.525 0.00025 1378.06 1090.42 1734.55 1973.21 1833.7 1562.69 1368.25 1184.32 1084.03 991.012 952.902 928.233 882.776 848.104 811.603 789.791 757.124 688.959 703.494 737.638 701.6 675.644 624.758 575.953 531.153 552.906 562.422 536.565 520.388 517.357 526.309 483.582 472.415 437.976 438.366 442.593 400.79 386.647 386.553 363.53 369.904 360.363 342.891 346.937 347.594 355.774 347.042 337.518 358.781 346.313 320.735 320.001 316.025 332.237 344.665 332.967 335.895 321.198 303.315 291.078 299.079 293.6 270.142 250.381 249.74 245.557 234.441 226.446 225.99 219.582 198.261 189.225 193.643 193.084 188.445 173.293 172.496 157.195 145.515 142.063 131.353 120.216 112.366 104.573 109.21 105.146 90.8016 85.1759 82.4022 78.2924 69.7987 59.8622 53.4557 51.6691 49.6693 51.767 52.497 54.5968 55.695 18.9724
255.5275 0.00025 1381.03 1091.83 1735.76 1982.25 1836.65 1559.14 1365.68 1187.4 1084.47 994.665 952.837 931.408 882.304 849.257 809.499 789.953 760.765 688.193 701.748 737.96 700.677 677.04 626.675 575.134 531.802 552.432 562.787 536.846 520.255 518.801 525.755 482.485 472.543 439.008 440.059 442.216 401.086 388.508 386.883 362.806 368.115 360.943 343.522 346.744 347.49 355.802 345.679 336.511 358.956 347.489 321.319 318.803 315.517 331.549 344.217 333.995 335.479 321.737 304.854 292.989 299.339 293.723 269.43 249.294 249.045 245.412 234.426 226.782 226.201 219.712 198.529 189.042 193.263 191.7 188.113 173.21 171.858 157.826 145.873 142.118 131.703 119.977 112.587 104.574 109.121 105.1 90.512 84.7879 82.2433 78.4778 70.0118 60.2082 53.6539 51.8141 49.6047 51.723 52.5687 54.7071 55.7051 18.9508
255.53 0.00025 1384.47 1093.05 1736.6 1991.29 1839.5 1555.87 1363.26 1191.01 1084.71 998.286 953.446 934.166 882.198 850.581 806.916 790.239 764.178 688.091 699.733 736.891 700.856 677.05 629.47 574.369 532.73 552.168 562.144 538.189 520.029 520.057 525.313 481.319 472.301 440.493 442.217 441.22 401.355 390.544 387.057 362.299 366.251 361.461 344.176 346.698 347.467 355.853 344.334 335.56 358.988 348.527 321.894 317.664 315.136 330.781 343.716 335.05 334.985 322.225 306.303 294.98 299.583 293.71 268.751 248.315 248.264 245.257 234.42 227.09 226.437 219.767 198.743 188.939 192.944 190.38 187.587 173.275 171.175 158.324 146.269 142.217 132.061 119.748 112.807 104.591 109.045 105.081 90.2373 84.4009 82.0617 78.6637 70.2047 60.552 53.8698 51.9517 49.5494 51.6771 52.6364 54.8161 55.7202 18.9298
255.5325 0.00025 1388.26 1093.91 1737.23 2000.17 1842.21 1553 1361.03 1194.91 1084.78 1001.87 954.677 936.611 882.355 852.073 803.967 790.633 767.174 688.693 697.646 734.335 702.044 675.874 632.872 573.847 533.87 552.146 560.569 540.414 519.87 521.034 525.057 480.1 471.649 442.445 444.704 439.759 401.595 392.692 387.006 362.053 364.361 361.833 344.899 346.75 347.53 355.931 343.005 334.698 358.891 349.415 322.411 316.635 314.872 329.906 343.218 336.095 334.441 322.662 307.674 297.025 299.836 293.56 268.105 247.445 247.405 245.085 234.431 227.364 226.689 219.752 198.91 188.909 192.689 189.139 186.881 173.445 170.5 158.676 146.676 142.367 132.428 119.538 113.019 104.628 108.977 105.089 89.979 84.0172 81.856 78.8498 70.3791 60.8888 54.1058 52.0821 49.5027 51.6309 52.7006 54.9231 55.7404 18.9098
255.535 0.00025 1392.25 1094.38 1737.84 2008.69 1844.83 1550.66 1359.06 1198.82 1084.8 1005.37 956.434 938.853 882.714 853.704 800.764 791.136 769.572 689.944 695.665 730.403 703.85 673.992 636.423 573.796 535.161 552.296 558.327 543.189 519.976 521.685 524.976 478.878 470.568 444.844 447.388 438.005 401.816 394.877 386.701 362.098 362.479 361.99 345.735 346.853 347.667 356.055 341.692 333.947 358.664 350.17 322.837 315.736 314.752 328.897 342.773 337.089 333.889 323.054 308.966 299.093 300.126 293.274 267.492 246.68 246.488 244.883 234.478 227.598 226.947 219.671 199.035 188.935 192.498 187.989 186.012 173.678 169.871 158.884 147.067 142.571 132.806 119.352 113.216 104.687 108.913 105.121 89.7391 83.6397 81.6263 79.0371 70.5396 61.2144 54.3631 52.2064 49.4629 51.5856 52.7617 55.028 55.7661 18.8906
255.5375 0.00025 1396.27 1094.43 1738.57 2016.62 1847.41 1549.02 1357.43 1202.46 1084.99 1008.65 958.647 940.982 883.294 855.389 797.42 791.741 771.203 691.713 693.891 725.429 705.672 672.02 639.594 574.43 536.573 552.487 555.809 546.064 520.511 522.045 525.002 477.749 469.061 447.617 450.162 436.115 402.033 397.007 386.13 362.435 360.631 361.892 346.713 346.963 347.859 356.245 340.392 333.321 358.311 350.838 323.131 314.956 314.824 327.734 342.403 337.998 333.361 323.389 310.186 301.146 300.484 292.856 266.915 246.011 245.536 244.631 234.575 227.788 227.202 219.532 199.129 189.007 192.371 186.936 185.003 173.936 169.316 158.961 147.415 142.826 133.197 119.198 113.393 104.773 108.85 105.178 89.519 83.272 81.373 79.2248 70.6894 61.5247 54.6416 52.3262 49.4279 51.5414 52.82 55.1308 55.7972 18.8724
255.54 0.00025 1400.28 1094.08 1739.54 2023.71 1849.98 1548.23 1356.31 1205.59 1085.63 1011.53 961.289 943.005 884.212 856.991 794.102 792.438 771.982 693.795 692.363 719.887 706.874 670.539 641.94 575.879 538.096 552.566 553.461 548.599 521.571 522.217 525.008 476.818 467.161 450.635 452.961 434.209 402.257 399.001 385.321 363.032 358.842 361.53 347.842 347.037 348.08 356.522 339.1 332.831 357.828 351.452 323.271 314.268 315.12 326.407 342.117 338.792 332.884 323.68 311.359 303.162 300.934 292.309 266.38 245.421 244.572 244.312 234.74 227.93 227.445 219.341 199.206 189.112 192.305 185.985 183.88 174.187 168.849 158.928 147.694 143.121 133.609 119.087 113.547 104.887 108.787 105.257 89.3205 82.9189 81.0968 79.4105 70.8317 61.8171 54.9403 52.4439 49.3957 51.4989 52.8762 55.2314 55.8339 18.8553
255.5425 0.00025 1404.18 1093.33 1740.72 2029.74 1852.52 1548.42 1355.85 1208.06 1087.01 1013.86 964.325 944.86 885.629 858.37 791.022 793.202 771.947 695.903 691.078 714.256 706.953 669.902 643.223 578.127 539.755 552.385 551.692 550.452 523.146 522.36 524.827 476.181 464.953 453.727 455.757 432.385 402.498 400.794 384.336 363.821 357.128 360.939 349.108 347.04 348.302 356.903 337.822 332.479 357.208 352.045 323.254 313.64 315.653 324.94 341.91 339.458 332.483 323.948 312.497 305.107 301.489 291.648 265.888 244.894 243.624 243.911 234.985 228.026 227.661 219.103 199.277 189.236 192.295 185.142 182.665 174.407 168.475 158.814 147.888 143.438 134.044 119.025 113.676 105.028 108.723 105.356 89.1451 82.5828 80.7988 79.5922 70.9704 62.0901 55.2566 52.5625 49.3637 51.4585 52.9314 55.3291 55.8759 18.8393
255.545 0.00025 1407.89 1092.28 1742.03 2034.51 1855.01 1549.6 1356.11 1209.81 1089.37 1015.48 967.679 946.49 887.663 859.43 788.407 793.967 771.241 697.723 690.018 708.901 705.675 670.169 643.484 581.002 541.596 551.841 550.794 551.439 525.115 522.662 524.309 475.887 462.571 456.694 458.548 430.722 402.765 402.323 383.254 364.712 355.505 360.178 350.475 346.955 348.504 357.391 336.565 332.26 356.455 352.635 323.097 313.043 316.414 323.402 341.747 339.981 332.171 324.207 313.604 306.965 302.16 290.902 265.441 244.413 242.718 243.41 235.316 228.086 227.836 218.827 199.349 189.366 192.329 184.412 181.375 174.581 168.191 158.648 147.99 143.754 134.505 119.022 113.781 105.194 108.659 105.47 88.9946 82.2669 80.4807 79.7663 71.1095 62.3426 55.5868 52.6852 49.3302 51.4202 52.986 55.4239 55.9229 18.8246
255.5475 0.00025 1411.41 1091.08 1743.41 2037.89 1857.45 1551.78 1357.01 1210.91 1092.81 1016.4 971.212 947.855 890.34 860.164 786.481 794.633 770.062 698.991 689.148 704.016 703.102 671.113 642.998 584.24 543.681 550.894 550.904 551.565 527.266 523.298 523.355 475.935 460.176 459.334 461.335 429.286 403.067 403.542 382.165 365.596 353.992 359.324 351.894 346.779 348.669 357.972 335.345 332.165 355.586 353.219 322.832 312.459 317.343 321.894 341.576 340.363 331.949 324.471 314.694 308.725 302.945 290.101 265.036 243.963 241.873 242.804 235.726 228.129 227.958 218.52 199.435 189.492 192.395 183.798 180.028 174.699 167.987 158.455 147.997 144.046 134.993 119.085 113.866 105.382 108.598 105.597 88.869 81.9748 80.1449 79.9271 71.252 62.5749 55.9272 52.8156 49.2934 51.3837 53.0402 55.5159 55.9748 18.8112
255.55 0.00025 1414.59 1089.93 1744.8 2039.84 1859.81 1554.88 1358.37 1211.48 1097.32 1016.71 974.683 948.936 893.57 860.695 785.393 795.096 768.598 699.544 688.413 699.632 699.507 672.32 642.143 587.548 546.036 549.592 551.975 551.019 529.339 524.378 521.947 476.279 457.935 461.478 464.103 428.133 403.396 404.417 381.158 366.364 352.616 358.454 353.303 346.523 348.784 358.617 334.187 332.173 354.631 353.775 322.497 311.888 318.355 320.529 341.356 340.62 331.815 324.772 315.774 310.379 303.829 289.28 264.661 243.538 241.111 242.094 236.2 228.179 228.011 218.191 199.546 189.608 192.476 183.305 178.637 174.753 167.852 158.251 147.92 144.289 135.506 119.218 113.935 105.588 108.542 105.732 88.7677 81.7083 79.7963 80.0701 71.401 62.7889 56.2729 52.9574 49.2525 51.3487 53.0947 55.6051 56.0314 18.7992
255.5525 0.00025 1417.32 1089.01 1746.08 2040.35 1862.08 1558.84 1359.95 1211.71 1102.82 1016.64 977.815 949.763 897.171 861.235 785.2 795.293 766.966 699.365 687.751 695.666 695.215 673.398 641.287 590.679 548.621 548.088 553.791 550.122 531.087 525.915 520.155 476.84 455.982 463.027 466.815 427.311 403.748 404.914 380.323 366.916 351.399 357.637 354.649 346.203 348.844 359.284 333.121 332.259 353.625 354.276 322.137 311.344 319.355 319.414 341.052 340.771 331.754 325.143 316.856 311.925 304.787 288.475 264.295 243.131 240.447 241.286 236.708 228.265 227.981 217.848 199.686 189.715 192.558 182.932 177.214 174.738 167.781 158.048 147.776 144.46 136.031 119.426 113.995 105.804 108.495 105.868 88.6905 81.4693 79.44 80.1905 71.5593 62.9867 56.619 53.1136 49.2071 51.3149 53.1504 55.6916 56.0925 18.7886
255.555 0.00025 1419.48 1088.5 1747.12 2039.52 1864.21 1563.58 1361.53 1211.8 1109.19 1016.48 980.337 950.351 900.903 862.026 785.882 795.209 765.209 698.547 687.097 692 690.452 674.113 640.69 593.509 551.31 546.607 556.021 549.253 532.332 527.814 518.133 477.517 454.409 463.975 469.397 426.867 404.125 405.008 379.746 367.18 350.361 356.924 355.887 345.84 348.845 359.921 332.177 332.388 352.611 354.691 321.788 310.859 320.257 318.626 340.659 340.826 331.742 325.614 317.947 313.367 305.788 287.73 263.922 242.741 239.885 240.396 237.208 228.422 227.853 217.497 199.858 189.815 192.627 182.677 175.771 174.65 167.769 157.85 147.587 144.543 136.555 119.713 114.054 106.026 108.462 106 88.6373 81.2585 79.0818 80.2823 71.7282 63.1708 56.9612 53.2865 49.1572 51.2806 53.2074 55.7755 56.1579 18.7795
255.5575 0.00025 1420.91 1088.58 1747.89 2037.57 1866.18 1568.99 1362.98 1212.02 1116.26 1016.55 982.031 950.704 904.555 863.266 787.39 794.861 763.332 697.245 686.407 688.514 685.292 674.436 640.482 596.033 553.893 545.423 558.3 548.753 533.007 529.862 516.094 478.199 453.243 464.397 471.744 426.839 404.527 404.689 379.489 367.122 349.521 356.349 356.989 345.466 348.788 360.473 331.385 332.528 351.629 354.984 321.485 310.467 320.991 318.191 340.203 340.793 331.757 326.212 319.069 314.718 306.8 287.084 263.527 242.369 239.432 239.448 237.654 228.681 227.619 217.138 200.061 189.914 192.672 182.53 174.322 174.483 167.813 157.652 147.372 144.53 137.063 120.079 114.121 106.249 108.446 106.124 88.6078 81.0761 78.7281 80.3402 71.9087 63.3442 57.2948 53.4775 49.1035 51.2446 53.2664 55.8568 56.2272 18.7719
255.56 0.00025 1421.6 1089.41 1748.43 2034.68 1868.04 1574.96 1364.27 1212.63 1123.81 1017.11 982.804 950.756 907.97 865.044 789.686 794.268 761.351 695.628 685.674 685.121 679.687 674.511 640.676 598.347 556.12 544.788 560.328 548.844 533.194 531.766 514.282 478.802 452.457 464.435 473.747 427.247 404.949 403.966 379.572 366.745 348.879 355.927 357.935 345.109 348.683 360.897 330.77 332.655 350.73 355.132 321.249 310.194 321.525 318.088 339.733 340.679 331.774 326.955 320.24 315.99 307.78 286.567 263.101 242.018 239.088 238.476 237.995 229.073 227.279 216.771 200.292 190.019 192.687 182.476 172.883 174.234 167.917 157.452 147.149 144.422 137.536 120.522 114.202 106.47 108.453 106.237 88.6014 80.9226 78.3865 80.3608 72.101 63.5101 57.6158 53.6871 49.0481 51.2061 53.328 55.9358 56.3002 18.7659
255.5625 0.00025 1421.54 1091.12 1748.76 2030.98 1869.76 1581.34 1365.52 1213.91 1131.64 1018.35 982.703 950.384 911.088 867.308 792.761 793.45 759.296 693.882 684.908 681.747 673.592 674.528 641.228 600.606 557.758 544.871 561.934 549.572 533.11 533.2 512.935 479.252 451.986 464.259 475.318 428.084 405.383 402.884 379.964 366.094 348.413 355.655 358.719 344.794 348.546 361.153 330.339 332.751 349.952 355.117 321.097 310.049 321.866 318.255 339.306 340.487 331.771 327.848 321.489 317.206 308.685 286.204 262.641 241.684 238.852 237.511 238.185 229.619 226.837 216.393 200.544 190.138 192.666 182.501 171.472 173.897 168.082 157.241 146.933 144.224 137.955 121.038 114.306 106.688 108.486 106.339 88.6174 80.7971 78.0639 80.3407 72.3035 63.672 57.9215 53.9148 48.9933 51.1634 53.3922 56.0126 56.3765 18.7617
255.565 0.00025 1420.65 1093.71 1748.92 2026.68 1871.32 1587.96 1366.95 1216.07 1139.6 1020.43 981.854 949.469 913.911 869.913 796.607 792.422 757.222 692.193 684.087 678.298 667.058 674.568 642.094 602.96 558.655 545.705 563.091 550.838 533.044 533.871 512.244 479.501 451.75 464.018 476.412 429.302 405.816 401.535 380.572 365.263 348.093 355.52 359.341 344.545 348.399 361.217 330.079 332.81 349.325 354.933 321.039 310.03 322.052 318.603 338.98 340.224 331.739 328.883 322.848 318.394 309.473 286.008 262.153 241.361 238.721 236.583 238.188 230.325 226.31 215.994 200.815 190.277 192.611 182.581 170.112 173.471 168.306 157.015 146.733 143.949 138.299 121.62 114.437 106.903 108.545 106.428 88.6535 80.697 77.7664 80.278 72.5139 63.8335 58.2099 54.1586 48.9416 51.115 53.4592 56.0878 56.456 18.759
255.5675 0.00025 1418.85 1097.02 1748.93 2021.88 1872.67 1594.58 1368.8 1219.19 1147.6 1023.4 980.408 947.954 916.431 872.706 801.165 791.218 755.212 690.738 683.159 674.647 660.314 674.541 643.275 605.503 558.785 547.18 563.872 552.46 533.274 533.575 512.295 479.554 451.671 463.818 477.047 430.81 406.226 400.043 381.251 364.375 347.872 355.51 359.814 344.377 348.261 361.076 329.969 332.837 348.865 354.577 321.076 310.13 322.136 319.046 338.793 339.903 331.684 330.032 324.346 319.575 310.115 285.981 261.652 241.045 238.696 235.719 237.98 231.18 225.72 215.565 201.099 190.44 192.525 182.693 168.819 172.953 168.585 156.774 146.55 143.614 138.555 122.253 114.6 107.118 108.63 106.502 88.7081 80.6206 77.4995 80.1729 72.7283 63.9983 58.4807 54.4159 48.8963 51.0592 53.5293 56.1618 56.5381 18.758
255.57 0.00025 1416.18 1100.87 1748.81 2016.76 1873.82 1600.93 1371.23 1223.3 1155.64 1027.29 978.464 945.901 918.594 875.61 806.262 789.899 753.354 689.696 682.022 670.681 653.707 674.18 644.811 608.272 558.267 549.101 564.394 554.244 534.006 532.266 513.044 479.471 451.695 463.705 477.305 432.486 406.599 398.552 381.823 363.568 347.69 355.609 360.166 344.301 348.157 360.738 329.974 332.844 348.579 354.059 321.206 310.335 322.169 319.512 338.771 339.54 331.621 331.25 326.009 320.765 310.598 286.112 261.161 240.725 238.774 234.941 237.553 232.157 225.102 215.096 201.391 190.629 192.415 182.813 167.611 172.347 168.91 156.52 146.381 143.241 138.716 122.924 114.796 107.338 108.738 106.561 88.7793 80.5657 77.2679 80.0274 72.9422 64.1692 58.7345 54.6833 48.8608 50.995 53.6021 56.235 56.6227 18.7586
255.5725 0.00025 1412.61 1104.99 1748.52 2011.49 1874.73 1606.68 1374.39 1228.29 1163.77 1032 976.072 943.417 920.303 878.659 811.616 788.556 751.718 689.218 680.53 666.351 647.603 673.144 646.735 611.24 557.354 551.243 564.747 556.025 535.311 530.071 514.306 479.357 451.774 463.664 477.311 434.19 406.937 397.2 382.117 362.96 347.502 355.794 360.43 344.324 348.109 360.215 330.046 332.851 348.462 353.396 321.417 310.635 322.185 319.961 338.91 339.153 331.58 332.485 327.855 321.975 310.933 286.375 260.706 240.396 238.951 234.263 236.918 233.215 224.492 214.576 201.691 190.847 192.29 182.921 166.501 171.657 169.267 156.261 146.218 142.847 138.779 123.613 115.026 107.565 108.868 106.607 88.8643 80.5298 77.0747 79.8442 73.1499 64.3482 58.972 54.9569 48.839 50.921 53.6769 56.3077 56.7095 18.7607
255.575 0.00025 1408.34 1109.13 1748.15 2006.19 1875.31 1611.56 1378.41 1234.02 1172.06 1037.39 973.282 940.643 921.428 881.97 816.885 787.308 750.364 689.403 678.533 661.694 642.264 671.184 648.997 614.36 556.359 553.411 564.972 557.667 537.143 527.272 515.788 479.353 451.897 463.64 477.202 435.785 407.267 396.086 382.005 362.625 347.269 356.034 360.645 344.444 348.129 359.529 330.144 332.875 348.51 352.613 321.695 311.021 322.202 320.378 339.185 338.746 331.601 333.691 329.891 323.204 311.151 286.728 260.312 240.056 239.221 233.695 236.099 234.297 223.929 213.994 201.996 191.09 192.162 182.996 165.5 170.896 169.638 156.008 146.05 142.446 138.746 124.303 115.289 107.805 109.017 106.644 88.9604 80.5112 76.9218 79.6279 73.3457 64.5373 59.1956 55.2321 48.8342 50.8362 53.7532 56.3804 56.798 18.7645
255.5775 0.00025 1403.33 1113.07 1747.6 2000.99 1875.4 1615.32 1383.32 1240.36 1180.53 1043.26 970.135 937.728 921.854 885.646 821.74 786.286 749.35 690.271 675.944 656.838 637.759 668.262 651.416 617.574 555.611 555.502 565.055 559.071 539.378 524.254 517.133 479.603 452.082 463.557 477.095 437.167 407.643 395.25 381.426 362.581 346.984 356.291 360.851 344.656 348.226 358.71 330.234 332.923 348.712 351.74 322.02 311.487 322.223 320.772 339.563 338.317 331.724 334.827 332.1 324.45 311.302 287.125 260.006 239.709 239.575 233.239 235.131 235.348 223.453 213.343 202.301 191.352 192.041 183.027 164.613 170.08 170.003 155.775 145.865 142.053 138.627 124.974 115.582 108.062 109.186 106.671 89.0653 80.5085 76.8097 79.385 73.5252 64.7373 59.408 55.5047 48.8494 50.7402 53.8304 56.4538 56.888 18.7698
255.58 0.00025 1397.92 1116.61 1746.77 1996.02 1874.9 1617.8 1389.1 1247.26 1189.1 1049.4 966.664 934.811 921.498 889.718 825.967 785.567 748.743 691.757 672.775 651.954 633.948 664.597 653.686 620.788 555.414 557.502 564.949 560.153 541.832 521.449 517.983 480.203 452.38 463.341 477.046 438.278 408.147 394.66 380.401 362.78 346.67 356.526 361.087 344.949 348.399 357.783 330.298 332.99 349.065 350.807 322.369 312.036 322.237 321.166 340.006 337.862 331.986 335.876 334.443 325.709 311.436 287.509 259.807 239.369 239.998 232.897 234.057 236.305 223.095 212.626 202.602 191.628 191.935 183.005 163.84 169.225 170.345 155.574 145.649 141.677 138.433 125.607 115.9 108.337 109.372 106.69 89.1773 80.5215 76.7387 79.1233 73.684 64.9473 59.6121 55.7707 48.8871 50.6337 53.9076 56.5285 56.9788 18.7765
255.5825 0.00025 1392.17 1119.52 1745.45 1991.33 1873.73 1618.97 1395.56 1254.73 1197.57 1055.63 963.009 931.988 920.343 894.119 829.497 785.187 748.602 693.726 669.152 647.205 630.592 660.6 655.416 623.875 556.041 559.485 564.603 560.823 544.305 519.269 518.06 481.177 452.873 462.944 477.054 439.116 408.871 394.227 379.014 363.12 346.387 356.693 361.393 345.311 348.648 356.773 330.333 333.06 349.56 349.848 322.715 312.665 322.233 321.588 340.474 337.378 332.401 336.843 336.86 326.984 311.602 287.827 259.724 239.055 240.469 232.663 232.923 237.108 222.878 211.854 202.895 191.917 191.85 182.926 163.178 168.35 170.641 155.415 145.395 141.323 138.18 126.188 116.241 108.63 109.574 106.704 89.296 80.5485 76.7071 78.8493 73.8179 65.1658 59.8111 56.0266 48.9494 50.5173 53.9839 56.6048 57.07 18.7846
255.585 0.00025 1386.32 1121.66 1743.55 1986.86 1871.88 1618.9 1402.36 1262.93 1205.67 1061.7 959.395 929.237 918.437 898.704 832.406 785.109 748.963 696.014 665.3 642.713 627.458 656.717 656.234 626.679 557.716 561.542 564.001 561 546.598 518.047 517.218 482.447 453.652 462.36 477.052 439.74 409.899 393.831 377.4 363.46 346.21 356.746 361.795 345.731 348.963 355.699 330.353 333.106 350.181 348.901 323.034 313.365 322.202 322.065 340.927 336.87 332.963 337.758 339.272 328.285 311.842 288.041 259.757 238.796 240.969 232.527 231.777 237.711 222.809 211.048 203.167 192.215 191.786 182.797 162.617 167.475 170.877 155.309 145.098 140.993 137.884 126.705 116.599 108.941 109.796 106.714 89.42 80.5879 76.7115 78.5695 73.9243 65.3907 60.0091 56.2692 49.0372 50.3928 54.0577 56.6832 57.1614 18.7941
255.5875 0.00025 1380.47 1122.94 1740.83 1982.48 1869.29 1617.81 1409.14 1271.95 1213.18 1067.37 956.132 926.469 915.849 903.269 834.86 785.275 749.827 698.465 661.473 638.529 624.408 653.265 655.899 629.049 560.561 563.744 563.179 560.633 548.519 517.997 515.478 483.853 454.811 461.629 476.917 440.248 411.286 393.362 375.707 363.654 346.218 356.644 362.303 346.205 349.33 354.576 330.379 333.098 350.905 348.007 323.306 314.121 322.144 322.624 341.325 336.355 333.653 338.664 341.596 329.633 312.186 288.13 259.894 238.627 241.48 232.482 230.66 238.082 222.881 210.242 203.401 192.521 191.742 182.626 162.147 166.617 171.04 155.262 144.754 140.686 137.557 127.151 116.972 109.266 110.037 106.722 89.5494 80.6391 76.7486 78.2909 74.0024 65.6194 60.2091 56.4958 49.1508 50.2617 54.1275 56.7643 57.2526 18.8048
255.59 0.00025 1374.71 1123.37 1737.14 1978.15 1865.82 1616.06 1415.62 1281.78 1219.99 1072.49 953.48 923.61 912.634 907.556 837.061 785.621 751.146 700.961 657.905 634.647 621.456 650.368 654.35 630.886 564.552 566.137 562.21 559.726 549.892 519.188 513.023 485.167 456.427 460.822 476.509 440.77 413.044 392.741 374.069 363.57 346.48 356.372 362.911 346.739 349.738 353.414 330.434 333.022 351.695 347.206 323.521 314.909 322.069 323.278 341.626 335.866 334.432 339.607 343.753 331.043 312.648 288.093 260.114 238.585 241.986 232.518 229.609 238.203 223.075 209.483 203.579 192.833 191.712 182.429 161.757 165.789 171.12 155.278 144.364 140.397 137.215 127.519 117.353 109.602 110.298 106.729 89.685 80.7021 76.8152 78.0198 74.0524 65.8488 60.4144 56.7052 49.289 50.1264 54.1915 56.8487 57.3435 18.8166
255.5925 0.00025 1369.15 1123.02 1732.48 1973.85 1861.31 1614.1 1421.67 1292.24 1226.06 1076.97 951.58 920.667 908.858 911.315 839.184 786.112 752.807 703.428 654.788 631.034 618.727 647.975 651.71 632.166 569.495 568.767 561.161 558.36 550.589 521.54 510.169 486.136 458.529 460.031 475.697 441.441 415.135 391.933 372.585 363.109 347.022 355.943 363.588 347.346 350.171 352.221 330.539 332.876 352.499 346.542 323.675 315.703 321.993 324.041 341.787 335.447 335.26 340.623 345.675 332.522 313.229 287.942 260.387 238.699 242.473 232.622 228.653 238.069 223.353 208.818 203.684 193.151 191.69 182.225 161.434 165.002 171.113 155.356 143.93 140.119 136.87 127.806 117.735 109.945 110.578 106.739 89.8278 80.7768 76.9074 77.7613 74.0754 66.0747 60.6273 56.8969 49.4505 49.9897 54.2482 56.9371 57.4338 18.8296