255.5025 0.00025 670.648 1649.05 2516.9 2109.49 1885.07 1600.4 1395.26 1244.36 1171.27 1083.24 986.08 932.241 876.843 825.922 763.13 716.766 680.954 637.199 630.267 634.529 608.434 547.809 500.224 475.889 453.634 453.045 448.664 433.887 445.616 433.845 417.009 408.364 406.195 406.228 392.818 372.866 366.709 362.73 342.845 328.294 328.826 326.712 317.887 310.119 303.771 307.543 295.054 276.102 268.576 272.846 282.889 291.782 288.238 275.186 271.003 263.251 257.931 249.151 254.275 255.043 255.965 233.832 224.95 217.757 211.905 205.776 201.801 198.872 186.437 177.899 176.304 166.186 159.935 158.477 155.848 147.363 137.621 127.293 120.431 117.847 118.524 110.788 103.971 95.3524 88.3431 83.2507 77.9158 72.1997 65.3106 60.7177 55.0903 48.6623 45.3676 43.3553 39.6414 35.4452 28.3699 23.5508 20.5163 19.8546
255.505 0.00025 670.814 1648.68 2520.9 2113.63 1884.99 1600.68 1399.77 1248.18 1173.56 1084.73 985.812 928.264 875.818 825.634 762.914 715.25 681.692 638.238 628.538 630.607 609.79 553.487 503.903 480.495 454.672 453.97 448.713 434.92 445.324 433.753 416.698 407.999 406.411 407.434 393.874 373.473 368.153 362.96 343.782 329.065 328.012 325.173 317.279 309.68 303.566 306.85 294.749 276.538 269.051 272.873 282.499 291.959 289.274 275.982 271.432 263.047 258.386 250.3 254.264 256.19 256.856 233.994 225.219 217.933 211.668 206.223 202.252 198.9 186.406 177.558 176.112 166.045 159.708 157.722 155.436 147.342 137.729 127.578 120.649 117.767 118.413 110.95 104.015 95.5936 88.476 83.4114 78.1627 72.2209 65.2746 60.7924 55.1536 48.553 45.2908 43.3814 39.7533 35.6148 28.4966 23.5724 20.5341 19.8492
255.5075 0.00025 670.867 1648.18 2523.92 2117.77 1884.63 1601.63 1404.83 1252.4 1175.66 1086.38 986.019 924.434 874.82 825.218 762.923 713.366 682.066 640.258 627.133 626.502 610.289 558.83 507.88 485.335 455.66 455.009 448.854 435.994 444.876 433.495 416.518 407.951 406.583 408.459 394.861 373.993 369.7 363.234 344.761 329.813 327.303 323.673 316.325 309.368 303.559 306.023 294.254 276.953 269.607 272.958 282.158 292.122 290.169 276.698 271.941 262.833 258.873 251.454 254.251 257.271 257.739 234.217 225.496 218.129 211.444 206.615 202.693 198.952 186.391 177.29 175.867 165.873 159.496 156.988 154.994 147.298 137.799 127.882 120.907 117.702 118.275 111.095 104.058 95.829 88.6201 83.5689 78.4105 72.2371 65.2503 60.865 55.2147 48.4597 45.2153 43.4015 39.8635 35.7798 28.627 23.5932 20.5512 19.8443
255.51 0.00025 672.362 1648.75 2525.99 2121.71 1884.29 1603.24 1410.51 1256.81 1177.36 1088.12 986.658 920.965 873.8 824.627 763.075 711.329 681.975 643.113 626.034 622.409 610.166 563.645 512.103 490.216 456.756 456.114 449.122 437.09 444.324 433.085 416.491 408.216 406.751 409.282 395.76 374.4 371.33 363.583 345.753 330.501 326.731 322.24 315.052 309.152 303.692 305.148 293.579 277.333 270.213 273.116 281.85 292.283 290.925 277.315 272.512 262.64 259.396 252.597 254.259 258.254 258.614 234.503 225.782 218.346 211.242 206.946 203.117 199.032 186.391 177.102 175.582 165.664 159.292 156.279 154.529 147.237 137.823 128.194 121.21 117.651 118.117 111.221 104.104 96.0544 88.7776 83.725 78.6567 72.2512 65.2367 60.9387 55.2723 48.3838 45.1424 43.4152 39.9726 35.9408 28.7616 23.6139 20.5678 19.8398
255.5125 0.00025 673.64 1649.96 2527.13 2125.39 1884.21 1605.39 1416.91 1261.22 1178.52 1089.85 987.685 918.04 872.698 823.795 763.236 709.358 681.393 646.517 625.268 618.484 609.639 567.813 516.474 494.959 458.11 457.223 449.578 438.18 443.719 432.512 416.627 408.722 406.974 409.894 396.547 374.701 373.028 364.055 346.72 331.103 326.296 320.89 313.539 308.966 303.89 304.308 292.756 277.664 270.836 273.361 281.564 292.439 291.55 277.823 273.116 262.5 259.961 253.714 254.301 259.124 259.484 234.867 226.082 218.586 211.071 207.217 203.521 199.149 186.401 176.984 175.267 165.421 159.089 155.6 154.048 147.161 137.797 128.501 121.559 117.613 117.94 111.328 104.152 96.2654 88.9459 83.8807 78.8992 72.2659 65.2315 61.0159 55.3241 48.3259 45.0733 43.4229 40.0811 36.0983 28.9009 23.636 20.584 19.8357
255.515 0.00025 674.323 1651.29 2527.19 2128.7 1884.61 1607.82 1424.15 1265.49 1178.99 1091.43 989.019 915.804 871.536 822.692 763.269 707.618 680.388 650.129 624.889 614.861 608.883 571.297 520.853 499.421 459.811 458.266 450.305 439.22 443.107 431.823 416.944 409.378 407.324 410.294 397.182 374.916 374.749 364.674 347.641 331.607 325.975 319.638 311.896 308.722 304.082 303.578 291.829 277.934 271.449 273.699 281.314 292.579 292.047 278.221 273.718 262.45 260.56 254.784 254.38 259.872 260.35 235.315 226.401 218.847 210.936 207.425 203.895 199.305 186.419 176.931 174.929 165.142 158.876 154.949 153.553 147.075 137.72 128.793 121.951 117.592 117.749 111.418 104.207 96.4635 89.1223 84.0368 79.1342 72.2839 65.2316 61.0982 55.3686 48.2863 45.0088 43.424 40.1884 36.2524 29.0446 23.66 20.5997 19.8322
255.5175 0.00025 673.746 1652.83 2526.26 2131.49 1885.68 1610.25 1432.18 1269.59 1178.72 1092.69 990.589 914.266 870.392 821.349 763.062 706.22 679.099 653.604 624.927 611.637 608.012 574.125 525.098 503.479 461.902 459.154 451.418 440.146 442.511 431.075 417.449 410.097 407.862 410.49 397.628 375.08 376.447 365.473 348.506 332.014 325.731 318.494 310.247 308.33 304.22 303.011 290.839 278.132 272.019 274.115 281.11 292.686 292.437 278.514 274.276 262.527 261.187 255.795 254.5 260.503 261.199 235.859 226.742 219.118 210.846 207.566 204.227 199.505 186.445 176.936 174.584 164.834 158.643 154.325 153.051 146.983 137.593 129.059 122.376 117.589 117.546 111.492 104.27 96.6483 89.3074 84.1947 79.358 72.3082 65.2343 61.1877 55.405 48.2657 44.9501 43.4188 40.2935 36.4031 29.1919 23.6862 20.615 19.8288
255.52 0.00025 672.583 1654.66 2524.52 2133.64 1887.65 1612.58 1440.81 1273.58 1177.69 1093.4 992.347 913.333 869.361 819.814 762.545 705.159 677.699 656.64 625.374 608.908 607.084 576.365 529.08 507.096 464.397 459.801 453.021 440.927 441.943 430.329 418.121 410.803 408.626 410.495 397.842 375.235 378.074 366.452 349.296 332.337 325.511 317.469 308.717 307.702 304.266 302.64 289.844 278.252 272.518 274.592 280.971 292.742 292.736 278.72 274.759 262.763 261.851 256.741 254.658 261.013 262.009 236.508 227.111 219.394 210.802 207.642 204.513 199.75 186.483 176.995 174.246 164.505 158.384 153.723 152.546 146.886 137.426 129.292 122.826 117.61 117.328 111.551 104.342 96.8211 89.4988 84.3566 79.5685 72.3415 65.2374 61.2852 55.4326 48.2636 44.8979 43.4081 40.3961 36.5507 29.3423 23.7142 20.6299 19.8256
255.5225 0.00025 671.328 1656.78 2522.16 2135.07 1890.7 1614.75 1449.78 1277.6 1175.98 1093.36 994.252 912.877 868.521 818.148 761.713 704.323 676.388 659.036 626.163 606.786 606.1 578.102 532.717 510.297 467.222 460.15 455.16 441.564 441.407 429.659 418.928 411.457 409.642 410.332 397.805 375.411 379.597 367.599 350.009 332.587 325.266 316.558 307.406 306.776 304.197 302.466 288.902 278.298 272.929 275.11 280.921 292.73 292.951 278.86 275.139 263.178 262.548 257.621 254.866 261.413 262.778 237.265 227.517 219.664 210.812 207.657 204.743 200.039 186.536 177.1 173.921 164.16 158.096 153.139 152.047 146.786 137.23 129.485 123.291 117.66 117.097 111.594 104.424 96.9828 89.6943 84.5231 79.7636 72.3856 65.2405 61.3926 55.4516 48.2788 44.8515 43.3916 40.4948 36.6964 29.4958 23.7443 20.6441 19.8224
255.525 0.00025 670.096 1658.75 2519.31 2135.83 1894.83 1616.94 1458.77 1281.8 1173.76 1092.38 996.287 912.774 867.907 816.423 760.597 703.563 675.349 660.701 627.146 605.358 605.061 579.406 535.959 513.167 470.229 460.215 457.78 442.099 440.887 429.145 419.816 412.053 410.919 410.037 397.527 375.626 380.992 368.892 350.656 332.779 324.973 315.772 306.38 305.53 303.996 302.454 288.079 278.278 273.238 275.635 280.973 292.652 293.08 278.951 275.403 263.782 263.286 258.441 255.129 261.702 263.49 238.135 227.964 219.921 210.879 207.614 204.914 200.367 186.61 177.243 173.616 163.806 157.777 152.569 151.559 146.68 137.015 129.633 123.759 117.74 116.851 111.623 104.515 97.1328 89.8905 84.6942 79.9432 72.4422 65.2434 61.5102 55.4618 48.3098 44.8122 43.3712 40.5884 36.84 29.6522 23.7771 20.6576 19.8192
255.5275 0.00025 668.89 1660.34 2516.19 2136.04 1899.84 1619.33 1467.44 1286.28 1171.28 1090.44 998.411 912.934 867.463 814.719 759.242 702.765 674.709 661.637 628.139 604.667 603.969 580.341 538.769 515.829 473.23 460.112 460.738 442.647 440.378 428.856 420.717 412.611 412.409 409.649 397.044 375.864 382.248 370.303 351.259 332.931 324.627 315.12 305.659 303.982 303.658 302.551 287.43 278.207 273.436 276.139 281.136 292.525 293.122 279.017 275.55 264.572 264.057 259.209 255.435 261.875 264.129 239.117 228.458 220.154 211.005 207.517 205.022 200.729 186.713 177.423 173.337 163.454 157.432 152.004 151.087 146.563 136.799 129.735 124.218 117.85 116.593 111.64 104.614 97.2769 90.0855 84.8701 80.1053 72.5089 65.243 61.6355 55.465 48.3563 44.7817 43.3482 40.6757 36.9819 29.811 23.8125 20.6707 19.8162
255.53 0.00025 667.661 1661.69 2512.97 2135.77 1905.36 1622.21 1475.62 1291.08 1168.85 1087.64 1000.48 913.325 867.089 813.115 757.696 701.864 674.482 661.932 628.968 604.705 602.858 580.945 541.14 518.398 475.987 460.033 463.806 443.349 439.869 428.849 421.565 413.155 414.049 409.224 396.416 376.105 383.354 371.782 351.838 333.052 324.24 314.594 305.219 302.194 303.173 302.693 286.998 278.11 273.528 276.599 281.399 292.373 293.062 279.081 275.595 265.527 264.846 259.942 255.786 261.934 264.698 240.205 229.006 220.355 211.188 207.376 205.069 201.11 186.852 177.633 173.083 163.108 157.063 151.433 150.633 146.436 136.595 129.787 124.66 117.987 116.326 111.645 104.719 97.4181 90.2789 85.0503 80.2491 72.5838 65.2408 61.7673 55.4626 48.4166 44.7595 43.3231 40.7553 37.1219 29.9718 23.851 20.6833 19.8133
255.5325 0.00025 666.474 1662.77 2509.79 2135.17 1910.9 1625.8 1483.19 1296.22 1166.76 1084.18 1002.34 913.925 866.687 811.671 755.978 700.883 674.605 661.736 629.506 605.405 601.798 581.232 543.131 520.941 478.301 460.195 466.711 444.321 439.374 429.152 422.307 413.726 415.758 408.821 395.714 376.317 384.303 373.274 352.403 333.145 323.844 314.185 305.002 300.259 302.532 302.815 286.806 278.02 273.516 277.001 281.734 292.221 292.874 279.152 275.563 266.622 265.645 260.675 256.178 261.889 265.2 241.392 229.61 220.514 211.432 207.203 205.061 201.496 187.036 177.871 172.854 162.772 156.682 150.852 150.201 146.294 136.415 129.791 125.079 118.144 116.05 111.639 104.824 97.5589 90.4682 85.2332 80.3757 72.6675 65.2404 61.9057 55.4573 48.4889 44.7466 43.2976 40.8258 37.2601 30.1344 23.8929 20.6955 19.8101
255.535 0.00025 665.267 1663.41 2506.74 2134.47 1916.04 1630.23 1490.08 1301.62 1165.22 1080.41 1003.74 914.729 866.192 810.413 754.082 699.904 674.962 661.236 629.688 606.627 600.88 581.19 544.86 523.436 480.069 460.789 469.216 445.64 438.945 429.748 422.917 414.355 417.406 408.5 395.01 376.462 385.078 374.741 352.975 333.205 323.491 313.882 304.936 298.287 301.735 302.858 286.851 277.97 273.41 277.336 282.106 292.107 292.556 279.24 275.49 267.828 266.45 261.436 256.61 261.743 265.626 242.664 230.271 220.628 211.735 207.011 205.004 201.869 187.273 178.138 172.646 162.447 156.297 150.255 149.787 146.13 136.267 129.752 125.472 118.313 115.773 111.624 104.927 97.7023 90.6528 85.4172 80.4875 72.7575 65.2432 62.0482 55.4507 48.5712 44.7443 43.2737 40.8871 37.3969 30.2992 23.9381 20.7074 19.8069
255.5375 0.00025 663.938 1663.74 2503.8 2133.85 1920.55 1635.47 1496.21 1307.17 1164.38 1076.74 1004.48 915.698 865.617 809.309 752.019 698.985 675.455 660.617 629.498 608.201 600.214 580.791 546.471 525.771 481.321 461.903 471.165 447.312 438.672 430.589 423.399 415.068 418.855 408.335 394.367 376.514 385.663 376.15 353.562 333.234 323.233 313.672 304.944 296.384 300.784 302.775 287.109 277.999 273.237 277.608 282.474 292.058 292.112 279.341 275.418 269.101 267.241 262.237 257.078 261.501 265.976 244.004 230.991 220.69 212.091 206.812 204.9 202.209 187.565 178.435 172.461 162.136 155.919 149.636 149.391 145.945 136.159 129.675 125.835 118.488 115.501 111.6 105.026 97.8509 90.835 85.6025 80.5868 72.8494 65.2497 62.191 55.4444 48.6605 44.7523 43.2514 40.9381 37.5326 30.466 23.9871 20.7191 19.8037
255.54 0.00025 662.407 1663.94 2500.79 2133.55 1924.44 1641.39 1501.45 1312.69 1164.33 1073.54 1004.33 916.742 865.018 808.321 749.812 698.136 676.035 660.042 628.968 609.959 599.883 580.021 548.077 527.785 482.196 463.492 472.517 449.253 438.659 431.602 423.782 415.883 419.968 408.379 393.833 376.469 386.03 377.473 354.156 333.249 323.101 313.539 304.955 294.639 299.694 302.524 287.543 278.142 273.024 277.811 282.788 292.085 291.556 279.446 275.388 270.406 268.011 263.084 257.597 261.175 266.246 245.395 231.767 220.705 212.495 206.622 204.756 202.503 187.914 178.765 172.293 161.838 155.561 148.995 149.009 145.737 136.092 129.564 126.163 118.658 115.237 111.567 105.116 98.0061 91.0158 85.7864 80.6745 72.9399 65.2643 62.3333 55.4416 48.7554 44.7716 43.2314 40.9782 37.6664 30.6349 24.0398 20.7307 19.8003
255.5425 0.00025 660.678 1663.86 2497.75 2133.69 1927.98 1647.67 1505.81 1317.95 1165.13 1071.05 1003.19 917.729 864.45 807.424 747.531 697.312 676.718 659.618 628.126 611.722 599.935 578.912 549.702 529.333 482.912 465.417 473.323 451.345 439.011 432.714 424.116 416.814 420.643 408.663 393.439 376.333 386.143 378.678 354.745 333.291 323.105 313.47 304.919 293.107 298.498 302.077 288.103 278.414 272.81 277.949 283.011 292.189 290.921 279.537 275.428 271.713 268.765 263.972 258.184 260.774 266.432 246.823 232.591 220.678 212.937 206.458 204.583 202.74 188.317 179.13 172.139 161.549 155.23 148.336 148.638 145.506 136.067 129.43 126.454 118.818 114.985 111.525 105.193 98.1658 91.1971 85.9653 80.7529 73.0267 65.2892 62.4734 55.4449 48.8535 44.8026 43.2151 41.0074 37.7977 30.8057 24.0963 20.7421 19.7967
255.545 0.00025 658.746 1663.61 2494.61 2134.32 1931.61 1654.04 1509.3 1322.69 1166.85 1069.35 1001.07 918.457 863.961 806.624 745.26 696.443 677.571 659.388 627.022 613.32 600.409 577.576 551.249 530.351 483.686 467.509 473.689 453.467 439.795 433.867 424.448 417.853 420.81 409.178 393.194 376.118 385.97 379.743 355.308 333.43 323.235 313.455 304.809 291.808 297.252 301.422 288.736 278.815 272.635 278.028 283.117 292.354 290.251 279.602 275.567 272.993 269.499 264.88 258.858 260.318 266.532 248.272 233.453 220.616 213.402 206.337 204.382 202.913 188.764 179.534 172.002 161.269 154.932 147.662 148.269 145.251 136.081 129.282 126.702 118.964 114.746 111.474 105.257 98.33 91.3815 86.1386 80.8248 73.1048 65.3237 62.6082 55.4555 48.9524 44.8459 43.2026 41.0255 37.9259 30.9789 24.1566 20.7535 19.793
255.5475 0.00025 656.66 1663.11 2491.43 2135.45 1935.67 1660.29 1511.99 1326.63 1169.52 1068.44 998.106 918.782 863.545 805.921 743.103 695.471 678.663 659.338 625.755 614.609 601.301 576.178 552.511 530.89 484.667 469.618 473.718 455.497 441.037 435.031 424.827 418.976 420.464 409.879 393.1 375.868 385.498 380.63 355.827 333.747 323.46 313.485 304.619 290.731 296.019 300.557 289.395 279.33 272.548 278.048 283.09 292.55 289.587 279.631 275.824 274.221 270.212 265.778 259.638 259.829 266.535 249.73 234.345 220.533 213.877 206.275 204.165 203.017 189.244 179.981 171.882 160.997 154.672 146.985 147.898 144.976 136.13 129.131 126.901 119.092 114.523 111.414 105.308 98.4976 91.5737 86.3046 80.8914 73.1714 65.3705 62.7368 55.4748 49.0508 44.9016 43.1944 41.0332 38.0494 31.1548 24.2211 20.765 19.7892
255.55 0.00025 654.397 1662.43 2488.25 2137 1940.38 1666.39 1513.99 1329.57 1173.14 1068.17 994.515 918.554 863.135 805.322 741.177 694.386 680.009 659.43 624.467 615.466 602.595 574.886 553.25 531.108 485.914 471.654 473.493 457.351 442.715 436.185 425.308 420.148 419.658 410.693 393.146 375.62 384.728 381.288 356.287 334.322 323.734 313.541 304.364 289.831 294.859 299.494 290.032 279.923 272.595 278.008 282.932 292.742 288.964 279.627 276.203 275.38 270.917 266.639 260.535 259.33 266.439 251.175 235.257 220.445 214.345 206.287 203.938 203.051 189.746 180.471 171.781 160.734 154.45 146.315 147.521 144.683 136.211 128.988 127.049 119.201 114.314 111.343 105.344 98.6654 91.7773 86.4625 80.9558 73.2258 65.4315 62.8582 55.5051 49.1478 44.9701 43.1907 41.0307 38.1674 31.3332 24.2896 20.7767 19.7852
255.5525 0.00025 651.988 1661.62 2485.09 2138.65 1945.81 1672.35 1515.4 1331.43 1177.61 1068.49 990.544 917.708 862.633 804.825 739.594 693.266 681.58 659.642 623.279 615.797 604.265 573.807 553.286 531.2 487.441 473.583 473.092 458.955 444.775 437.32 425.948 421.339 418.484 411.532 393.313 375.393 383.69 381.652 356.697 335.218 324.015 313.605 304.07 289.062 293.825 298.254 290.608 280.556 272.819 277.909 282.655 292.89 288.411 279.607 276.696 276.451 271.625 267.439 261.548 258.848 266.242 252.587 236.183 220.367 214.79 206.384 203.709 203.019 190.257 181.001 171.704 160.481 154.264 145.664 147.133 144.375 136.315 128.863 127.14 119.287 114.12 111.262 105.366 98.8296 91.9951 86.6124 81.0193 73.2656 65.5051 62.9718 55.547 49.2417 45.0511 43.1919 41.0191 38.2785 31.5143 24.3623 20.7889 19.7811
255.555 0.00025 649.481 1660.78 2481.85 2140.01 1951.96 1678.24 1516.33 1332.26 1182.7 1069.4 986.401 916.268 861.898 804.405 738.439 692.223 683.314 659.975 622.276 615.545 606.267 572.983 552.59 531.294 489.247 475.362 472.588 460.244 447.142 438.448 426.788 422.525 417.073 412.307 393.592 375.203 382.442 381.659 357.082 336.459 324.28 313.658 303.768 288.377 292.954 296.873 291.095 281.189 273.242 277.753 282.284 292.956 287.945 279.588 277.274 277.415 272.346 268.157 262.665 258.414 265.949 253.944 237.115 220.315 215.199 206.573 203.488 202.92 190.764 181.566 171.655 160.24 154.111 145.043 146.726 144.053 136.435 128.765 127.175 119.349 113.945 111.169 105.372 98.9884 92.2299 86.7538 81.0823 73.2901 65.591 63.0774 55.6009 49.3321 45.1441 43.1985 40.9991 38.382 31.6983 24.4393 20.8014 19.7768
255.5575 0.00025 646.932 1659.97 2478.59 2140.72 1958.67 1684.17 1516.82 1332.21 1188.08 1070.99 982.274 914.274 860.805 804.007 737.758 691.395 685.105 660.445 621.501 614.724 608.534 572.388 551.282 531.404 491.345 476.91 472.065 461.161 449.698 439.584 427.846 423.693 415.569 412.948 393.963 375.056 381.064 381.25 357.47 338.033 324.524 313.681 303.486 287.741 292.248 295.399 291.472 281.786 273.867 277.551 281.844 292.908 287.568 279.589 277.905 278.265 273.094 268.788 263.866 258.052 265.564 255.224 238.041 220.301 215.566 206.854 203.281 202.758 191.259 182.158 171.644 160.014 153.981 144.465 146.299 143.721 136.567 128.699 127.158 119.383 113.791 111.065 105.364 99.139 92.4844 86.8885 81.144 73.2991 65.6875 63.1754 55.6676 49.4186 45.2483 43.2108 40.9719 38.4767 31.885 24.5207 20.8144 19.7725
255.56 0.00025 644.369 1659.19 2475.39 2140.53 1965.61 1690.28 1517.01 1331.48 1193.34 1073.33 978.343 911.779 859.307 803.587 737.563 690.898 686.859 661.085 620.948 613.405 610.929 571.944 549.622 531.471 493.759 478.13 471.621 461.681 452.29 440.753 429.126 424.822 414.113 413.409 394.393 374.943 379.642 380.396 357.884 339.887 324.755 313.654 303.25 287.137 291.682 293.884 291.723 282.317 274.678 277.321 281.366 292.732 287.274 279.64 278.564 278.997 273.875 269.339 265.126 257.782 265.095 256.408 238.956 220.34 215.893 207.229 203.094 202.538 191.734 182.764 171.674 159.807 153.868 143.938 145.85 143.386 136.705 128.666 127.094 119.383 113.661 110.951 105.341 99.2791 92.7595 87.0195 81.2041 73.2934 65.792 63.2669 55.746 49.5014 45.3627 43.2292 40.9386 38.5616 32.0742 24.6067 20.828 19.7681
255.5625 0.00025 641.815 1658.47 2472.35 2139.21 1972.32 1696.69 1516.99 1330.32 1198.16 1076.42 974.793 908.794 857.468 803.055 737.862 690.801 688.499 661.94 620.581 611.73 613.237 571.588 547.928 531.408 496.498 478.956 471.337 461.819 454.739 441.97 430.614 425.914 412.832 413.671 394.831 374.854 378.253 379.099 358.338 341.95 325.001 313.569 303.072 286.568 291.213 292.378 291.84 282.768 275.634 277.087 280.876 292.422 287.06 279.763 279.217 279.608 274.684 269.821 266.421 257.617 264.556 257.48 239.85 220.441 216.18 207.689 202.932 202.269 192.18 183.37 171.749 159.624 153.762 143.471 145.38 143.05 136.845 128.668 126.993 119.342 113.553 110.824 105.304 99.4084 93.0551 87.1495 81.262 73.2748 65.9022 63.3533 55.8362 49.5811 45.4857 43.2543 40.8999 38.6359 32.2655 24.6975 20.8424 19.7637
255.565 0.00025 639.312 1657.72 2469.48 2136.61 1978.26 1703.47 1516.87 1328.99 1202.29 1080.17 971.841 905.306 855.43 802.337 738.621 691.115 689.963 663.041 620.361 609.847 615.193 571.296 546.478 531.142 499.495 479.377 471.247 461.637 456.864 443.237 432.284 426.982 411.822 413.746 395.223 374.784 376.943 377.41 358.814 344.129 325.297 313.42 302.962 286.049 290.78 290.924 291.83 283.138 276.683 276.871 280.395 291.982 286.912 279.966 279.835 280.101 275.506 270.248 267.733 257.562 263.96 258.428 240.703 220.603 216.433 208.224 202.798 201.957 192.585 183.962 171.873 159.471 153.656 143.07 144.89 142.715 136.984 128.698 126.865 119.256 113.468 110.685 105.251 99.5259 93.3705 87.2834 81.3155 73.2458 66.0152 63.4365 55.9378 49.6583 45.6155 43.2864 40.8569 38.6991 32.4583 24.7934 20.8575 19.7592
255.5675 0.00025 636.893 1656.81 2466.64 2132.69 1983.03 1710.51 1516.78 1327.77 1205.58 1084.34 969.753 901.356 853.346 801.379 739.802 691.82 691.203 664.403 620.252 607.883 616.535 571.105 545.435 530.672 502.621 479.452 471.337 461.228 458.496 444.531 434.092 428.047 411.145 413.675 395.514 374.729 375.728 375.427 359.28 346.319 325.679 313.209 302.915 285.596 290.324 289.555 291.714 283.433 277.762 276.699 279.941 291.429 286.817 280.255 280.394 280.474 276.321 270.639 269.05 257.618 263.321 259.246 241.508 220.831 216.663 208.824 202.694 201.614 192.944 184.528 172.049 159.354 153.542 142.736 144.384 142.385 137.122 128.75 126.72 119.125 113.403 110.538 105.18 99.6308 93.7037 87.4262 81.3636 73.2093 66.128 63.5181 56.0494 49.7342 45.7502 43.3265 40.8105 38.7509 32.6519 24.8945 20.8736 19.7547
255.57 0.00025 634.584 1655.56 2463.75 2127.45 1986.36 1717.67 1516.75 1326.86 1208.01 1088.63 968.734 897.023 851.314 800.183 741.358 692.86 692.174 666.033 620.242 605.915 617.052 571.076 544.853 530.075 505.701 479.299 471.572 460.697 459.527 445.802 435.985 429.138 410.829 413.508 395.662 374.686 374.617 373.266 359.704 348.429 326.18 312.955 302.925 285.233 289.799 288.288 291.518 283.662 278.808 276.588 279.529 290.784 286.767 280.63 280.878 280.736 277.111 271.023 270.358 257.789 262.659 259.93 242.254 221.122 216.883 209.481 202.622 201.251 193.249 185.055 172.277 159.278 153.414 142.467 143.866 142.061 137.261 128.815 126.569 118.948 113.355 110.385 105.09 99.7246 94.052 87.5811 81.4038 73.1678 66.2371 63.5995 56.1706 49.8098 45.8875 43.3751 40.7615 38.7915 32.845 25.0013 20.8907 19.7503
255.5725 0.00025 632.424 1653.75 2460.6 2121.14 1988.16 1724.67 1516.83 1326.43 1209.66 1092.7 968.886 892.49 849.34 798.832 743.222 694.178 692.808 667.904 620.341 603.95 616.636 571.261 544.708 529.456 508.545 479.048 471.909 460.128 459.934 446.974 437.908 430.274 410.875 413.299 395.647 374.63 373.605 371.049 360.04 350.37 326.822 312.687 302.983 284.985 289.177 287.121 291.275 283.846 279.765 276.548 279.17 290.074 286.754 281.078 281.276 280.898 277.854 271.417 271.646 258.078 261.987 260.483 242.935 221.471 217.102 210.185 202.582 200.879 193.495 185.533 172.553 159.248 153.267 142.259 143.344 141.745 137.401 128.885 126.42 118.727 113.316 110.229 104.98 99.8069 94.4104 87.7527 81.4343 73.1247 66.3393 63.6817 56.3001 49.8863 46.0255 43.4326 40.7107 38.8211 33.0368 25.1139 20.909 19.7458
255.575 0.00025 630.418 1651.42 2457.19 2114.01 1988.6 1731.17 1517.06 1326.58 1210.68 1096.22 970.185 888.026 847.365 797.463 745.304 695.741 693.035 669.973 620.56 601.969 615.299 571.693 544.947 528.937 510.995 478.821 472.31 459.568 459.782 447.954 439.805 431.456 411.275 413.097 395.473 374.532 372.693 368.878 360.241 352.064 327.614 312.44 303.069 284.867 288.447 286.035 291.024 284.008 280.589 276.583 278.87 289.33 286.773 281.589 281.58 280.967 278.529 271.846 272.907 258.48 261.316 260.905 243.548 221.871 217.335 210.929 202.575 200.505 193.681 185.953 172.874 159.268 153.1 142.105 142.825 141.438 137.545 128.95 126.278 118.471 113.279 110.076 104.847 99.8785 94.7756 87.9455 81.4549 73.0826 66.4322 63.766 56.4374 49.9646 46.162 43.4993 40.6586 38.8401 33.2258 25.2327 20.9288 19.7415
255.5775 0.00025 628.568 1648.59 2453.56 2106.29 1987.98 1736.9 1517.46 1327.27 1211.21 1098.95 972.466 883.942 845.319 796.227 747.492 697.529 692.794 672.175 620.904 599.947 613.161 572.356 545.518 528.611 512.947 478.699 472.753 459.025 459.214 448.661 441.626 432.672 412.009 412.939 395.159 374.36 371.899 366.841 360.274 353.454 328.551 312.251 303.155 284.884 287.615 285.006 290.799 284.167 281.25 276.689 278.63 288.583 286.826 282.149 281.783 280.952 279.119 272.331 274.133 258.995 260.663 261.202 244.091 222.314 217.591 211.702 202.601 200.136 193.806 186.309 173.234 159.341 152.916 141.996 142.318 141.141 137.696 129.004 126.143 118.188 113.237 109.928 104.692 99.9409 95.144 88.1628 81.4651 73.0442 66.514 63.8529 56.5823 50.0455 46.2954 43.5754 40.6062 38.8492 33.4108 25.3577 20.95 19.7372
255.58 0.00025 626.872 1645.29 2449.89 2098.15 1986.71 1741.7 1518.08 1328.48 1211.39 1100.7 975.454 880.472 843.157 795.238 749.667 699.558 692.052 674.397 621.368 597.88 610.376 573.186 546.39 528.528 514.369 478.714 473.225 458.472 458.403 449.033 443.322 433.889 413.047 412.86 394.734 374.098 371.243 364.998 360.124 354.497 329.616 312.159 303.22 285.043 286.699 284.008 290.629 284.338 281.728 276.857 278.444 287.862 286.915 282.745 281.889 280.866 279.62 272.888 275.32 259.613 260.036 261.378 244.567 222.789 217.882 212.495 202.667 199.779 193.87 186.597 173.625 159.467 152.713 141.921 141.83 140.857 137.854 129.042 126.015 117.885 113.181 109.788 104.515 99.9946 95.5128 88.4064 81.4663 73.0123 66.5839 63.9424 56.7341 50.1295 46.424 43.6607 40.5539 38.8492 33.5903 25.489 20.973 19.733
255.5825 0.00025 625.351 1641.67 2446.36 2089.7 1985.14 1745.55 1518.98 1330.13 1211.31 1101.39 978.787 877.818 840.887 794.518 751.721 701.829 690.839 676.467 621.955 595.794 607.097 574.08 547.549 528.682 515.288 478.872 473.712 457.864 457.522 449.056 444.84 435.074 414.348 412.88 394.222 373.75 370.746 363.375 359.779 355.169 330.79 312.198 303.244 285.344 285.727 283.017 290.532 284.535 282.019 277.068 278.305 287.192 287.043 283.359 281.904 280.713 280.025 273.523 276.471 260.316 259.451 261.434 244.98 223.286 218.219 213.294 202.775 199.433 193.876 186.815 174.036 159.647 152.498 141.868 141.366 140.589 138.019 129.061 125.889 117.574 113.108 109.654 104.318 100.038 95.8782 88.6762 81.4602 72.9888 66.6409 64.0339 56.8929 50.2173 46.5465 43.7545 40.5026 38.8409 33.7631 25.6264 20.9979 19.729
255.585 0.00025 623.988 1637.89 2442.91 2081.19 1983.39 1748.45 1520.28 1332.06 1211 1101.01 982.079 876.09 838.555 794.022 753.578 704.331 689.269 678.191 622.659 593.768 603.481 574.908 548.97 529.038 515.776 479.166 474.194 457.188 456.711 448.771 446.126 436.187 415.863 413.012 393.646 373.353 370.406 361.965 359.24 355.465 332.042 312.387 303.209 285.775 284.73 282.016 290.516 284.769 282.132 277.303 278.201 286.597 287.209 283.973 281.839 280.496 280.339 274.236 277.596 261.089 258.925 261.375 245.331 223.796 218.614 214.09 202.935 199.1 193.824 186.968 174.455 159.881 152.275 141.824 140.931 140.339 138.192 129.061 125.762 117.263 113.016 109.527 104.102 100.07 96.237 88.9709 81.4487 72.9743 66.6852 64.1257 57.0578 50.309 46.6624 43.8562 40.4531 38.8259 33.9283 25.7699 21.0249 19.7252
255.5875 0.00025 622.851 1633.83 2439.49 2072.95 1981.43 1750.46 1522.18 1334.14 1210.52 1099.61 984.955 875.321 836.223 793.652 755.207 707.017 687.519 679.379 623.456 591.897 599.689 575.516 550.582 529.565 515.927 479.581 474.63 456.458 456.054 448.257 447.134 437.203 417.531 413.246 393.035 372.977 370.21 360.747 358.514 355.394 333.328 312.738 303.103 286.322 283.74 281.005 290.572 285.039 282.085 277.538 278.121 286.095 287.409 284.57 281.716 280.217 280.571 275.02 278.706 261.911 258.475 261.206 245.625 224.312 219.077 214.87 203.155 198.784 193.717 187.062 174.869 160.165 152.05 141.779 140.527 140.111 138.369 129.043 125.63 116.957 112.906 109.402 103.872 100.087 96.5886 89.2891 81.4348 72.9694 66.7174 64.2162 57.2287 50.4045 46.7712 43.9642 40.4061 38.8048 34.0847 25.919 21.0543 19.7216
255.59 0.00025 621.907 1629.7 2435.89 2065.28 1979.19 1751.6 1524.84 1336.22 1209.94 1097.32 987.071 875.492 833.943 793.276 756.616 709.815 685.79 679.898 624.29 590.25 595.897 575.731 552.282 530.241 515.865 480.108 474.956 455.723 455.58 447.63 447.835 438.105 419.291 413.552 392.412 372.712 370.129 359.684 357.615 354.996 334.599 313.262 302.923 286.958 282.794 279.997 290.676 285.336 281.906 277.752 278.055 285.703 287.643 285.135 281.565 279.872 280.732 275.863 279.81 262.76 258.117 260.935 245.861 224.83 219.612 215.625 203.445 198.486 193.554 187.106 175.266 160.499 151.83 141.724 140.155 139.907 138.547 129.008 125.491 116.66 112.78 109.277 103.633 100.091 96.9334 89.6279 81.423 72.9754 66.7393 64.304 57.4058 50.5043 46.873 44.0772 40.3625 38.7784 34.2316 26.0734 21.0864 19.7184
255.5925 0.00025 621.121 1625.63 2431.94 2058.45 1976.63 1751.85 1528.45 1338.17 1209.32 1094.31 988.159 876.471 831.764 792.757 757.868 712.636 684.258 679.71 625.055 588.873 592.305 575.406 553.928 531.036 515.726 480.726 475.112 455.078 455.263 447.016 448.206 438.879 421.073 413.889 391.81 372.649 370.129 358.726 356.556 354.327 335.797 313.959 302.69 287.651 281.926 279.011 290.802 285.648 281.629 277.933 277.999 285.426 287.906 285.655 281.411 279.457 280.837 276.75 280.918 263.616 257.867 260.576 246.032 225.348 220.213 216.348 203.809 198.209 193.334 187.111 175.635 160.879 151.621 141.65 139.815 139.731 138.722 128.956 125.342 116.37 112.641 109.148 103.388 100.076 97.2697 89.9833 81.4172 72.9928 66.7533 64.3869 57.5884 50.6082 46.9678 44.1933 40.3233 38.748 34.3684 26.2326 21.1215 19.7156