255.5025 0.00025 6751.52 1671.96 1816.34 1927.39 1676.5 1572.23 1378.3 1206.28 1090.41 943.148 911.387 805.162 768.469 717.829 686.439 636.26 630.447 617.435 586.798 558.326 544.746 549.191 496.358 442.428 436.482 411.758 413.699 446.224 468.781 434.866 399.877 377.216 384.43 388.086 362.56 349.089 355.187 360.642 342.04 331.468 318.569 321.737 321.951 305.658 291.308 272.986 274.277 257.39 248.334 266.794 267.971 260.475 251.292 240.046 226.285 223.906 254.477 270.381 248.685 246.975 235.354 212.805 201.86 203.709 212.902 212.648 197.623 195.426 190.633 176.913 160.514 156.911 169.632 166.531 153.713 147.818 134.823 139.148 131.437 122.179 118.02 105.532 99.4965 87.3864 82.0155 86.5457 78.4849 70.1362 69.5441 73.1221 63.4596 59.5316 57.3606 57.5301 52.589 51.939 53.2497 44.9434 48.4869 19.3115
255.505 0.00025 6740.27 1673.18 1817.16 1941.7 1679.5 1571.95 1380.1 1213.86 1091.41 943.647 910.856 810.076 766.395 719.553 687.251 637.612 630.57 618.893 587.044 558.21 543.162 545.847 503.093 441.559 437.667 412.2 413.63 445.947 468.597 432.67 401.14 378.439 385.497 387.49 363.092 347.916 355.507 360.738 341.041 329.9 318.871 322.807 321.832 305.408 290.648 274.866 275.464 256.7 247.825 267.439 268.311 260.51 250.133 239.714 227.854 224.215 253.714 270.082 250.969 246.655 236.008 214.299 202.026 203.863 212.198 213.453 197.817 195.283 190.794 177.006 160.409 157.139 168.79 166.061 153.33 148.122 134.333 138.309 131.782 122.971 118.043 105.443 99.7824 87.7743 82.4044 86.8096 78.4014 70.1144 69.8467 73.2538 63.3673 59.786 57.3533 57.2562 52.7042 51.7914 53.4032 45.1844 48.6657 19.365
255.5075 0.00025 6730.82 1674.86 1818.46 1954.72 1683.66 1570.32 1382.1 1221.35 1091.52 945.098 910.033 815.162 764.15 721.372 688.008 639.515 630.605 619.848 587.137 558.423 542.283 541.948 508.284 441.818 439.026 412.61 413.505 446.275 467.528 430.469 402.497 379.593 386.792 386.73 363.543 346.932 355.853 360.526 340.333 328.276 319.114 323.744 322.009 304.95 289.909 276.528 276.695 256.268 246.984 268.148 268.783 260.538 249.149 239.339 229.172 225.032 252.738 269.65 253.352 246.288 236.545 215.809 202.284 204.092 211.395 214.249 198.156 195.099 190.968 177.063 160.348 157.432 167.927 165.532 152.932 148.404 134.031 137.394 132.059 123.762 118.104 105.365 100.066 88.1728 82.794 87.0798 78.3161 70.1024 70.131 73.3916 63.2737 60.013 57.3707 56.9825 52.8 51.6647 53.5299 45.431 48.8426 19.4189
255.51 0.00025 6720.26 1674.95 1821.39 1966.19 1689.08 1567.66 1384.01 1228.83 1090.8 947.257 909.131 820.16 761.929 723.157 688.79 641.82 630.748 620.239 587.065 558.873 541.948 537.965 511.726 443.277 440.413 413.074 413.366 447.175 465.685 428.22 403.993 380.609 388.33 385.867 363.816 346.22 356.143 360.033 339.827 326.716 319.257 324.442 322.589 304.24 289.163 277.895 277.932 256.12 245.861 268.863 269.38 260.55 248.343 238.998 230.158 226.329 251.618 269.081 255.812 245.91 236.975 217.304 202.641 204.39 210.509 215.016 198.648 194.894 191.15 177.081 160.322 157.798 167.053 164.935 152.538 148.636 133.911 136.43 132.255 124.548 118.201 105.299 100.343 88.5848 83.1879 87.3516 78.2322 70.1027 70.3966 73.532 63.1838 60.2103 57.4097 56.7147 52.8713 51.5593 53.6321 45.6847 49.0181 19.4729
255.5125 0.00025 6710.67 1673.78 1824.99 1976.07 1695.95 1564.44 1385.47 1236.35 1089.41 949.814 908.283 824.841 759.938 724.736 689.624 644.396 631.091 620.093 586.786 559.469 541.985 534.193 513.466 445.888 441.678 413.645 413.28 448.529 463.174 425.899 405.628 381.487 390.059 384.972 363.859 345.824 356.318 359.315 339.433 325.342 319.276 324.838 323.607 303.277 288.464 278.893 279.144 256.253 244.544 269.506 270.066 260.554 247.703 238.742 230.786 228.037 250.439 268.375 258.317 245.54 237.32 218.757 203.099 204.752 209.562 215.724 199.302 194.686 191.332 177.059 160.323 158.238 166.184 164.259 152.163 148.798 133.965 135.444 132.36 125.318 118.337 105.245 100.611 89.011 83.5875 87.6197 78.153 70.116 70.6441 73.6708 63.1033 60.3766 57.4673 56.4595 52.9147 51.475 53.7108 45.947 49.1943 19.5265
255.515 0.00025 6702.16 1673.12 1828.83 1984.31 1704.3 1561.14 1386.17 1243.89 1087.64 952.514 907.626 829.008 758.335 726 690.478 647.176 631.644 619.497 586.268 560.127 542.282 530.697 513.777 449.515 442.665 414.368 413.347 450.226 460.116 423.544 407.365 382.296 391.902 384.13 363.663 345.732 356.343 358.445 339.058 324.255 319.16 324.908 325.016 302.104 287.854 279.479 280.303 256.639 243.134 270.019 270.793 260.576 247.217 238.602 231.078 230.052 249.275 267.541 260.826 245.194 237.602 220.146 203.656 205.175 208.579 216.345 200.121 194.491 191.508 176.991 160.352 158.743 165.334 163.494 151.818 148.881 134.175 134.461 132.37 126.065 118.513 105.204 100.87 89.4502 83.9973 87.8791 78.0824 70.1422 70.875 73.8031 63.0373 60.5107 57.5394 56.2222 52.9283 51.4119 53.7668 46.2159 49.3746 19.58
255.5175 0.00025 6693.41 1673.03 1833.26 1990.97 1714.03 1558.08 1386 1251.26 1085.85 955.286 907.23 832.532 757.214 726.891 691.264 650.137 632.364 618.547 585.503 560.742 542.774 527.357 513.082 453.974 443.222 415.295 413.66 452.167 456.581 421.212 409.153 383.155 393.758 383.407 363.268 345.885 356.206 357.489 338.609 323.516 318.909 324.673 326.701 300.817 287.349 279.632 281.376 257.237 241.745 270.349 271.496 260.651 246.879 238.579 231.09 232.252 248.198 266.63 263.315 244.892 237.836 221.438 204.296 205.656 207.586 216.848 201.104 194.329 191.674 176.872 160.403 159.305 164.518 162.632 151.51 148.878 134.516 133.501 132.289 126.778 118.732 105.177 101.116 89.9035 84.4193 88.1259 78.0229 70.1808 71.0922 73.9231 62.9896 60.6117 57.6214 56.0073 52.9117 51.3699 53.8016 46.4876 49.5592 19.6336
255.52 0.00025 6683.51 1672.9 1837.9 1996.11 1725.05 1555.41 1385.07 1258.28 1084.27 958.151 907.048 835.332 756.578 727.399 691.853 653.299 633.183 617.31 584.521 561.234 543.426 523.965 511.872 459.073 443.256 416.472 414.256 454.26 452.655 418.972 410.906 384.161 395.525 382.849 362.747 346.198 355.905 356.501 338.041 323.135 318.559 324.177 328.483 299.545 286.949 279.359 282.318 257.992 240.487 270.459 272.103 260.825 246.681 238.653 230.906 234.523 247.267 265.707 265.731 244.641 238.035 222.612 205 206.195 206.613 217.209 202.246 194.223 191.832 176.695 160.472 159.907 163.754 161.673 151.232 148.795 134.96 132.581 132.122 127.444 118.996 105.164 101.348 90.3688 84.8585 88.3546 77.9758 70.2309 71.2993 74.0264 62.964 60.6801 57.7101 55.8202 52.8648 51.3482 53.8191 46.7605 49.7465 19.687
255.5225 0.00025 6672.35 1672.66 1842.28 1999.75 1737.26 1553.13 1383.57 1264.75 1083.05 961.219 906.997 837.347 756.403 727.575 692.139 656.677 634.03 615.832 583.366 561.563 544.201 520.29 510.582 464.608 442.782 417.902 415.121 456.45 448.433 416.881 412.552 385.387 397.119 382.469 362.19 346.584 355.453 355.524 337.347 323.063 318.165 323.491 330.153 298.429 286.633 278.701 283.075 258.843 239.457 270.342 272.545 261.131 246.622 238.783 230.622 236.756 246.511 264.832 267.996 244.461 238.223 223.666 205.745 206.786 205.692 217.403 203.531 194.187 191.984 176.457 160.56 160.526 163.056 160.62 150.975 148.646 135.478 131.712 131.885 128.051 119.302 105.167 101.562 90.846 85.3181 88.5615 77.945 70.2927 71.4979 74.108 62.9632 60.7163 57.8009 55.663 52.7873 51.3427 53.8221 47.0346 49.9364 19.7395
255.525 0.00025 6660.09 1672.91 1846.11 2002.07 1750.54 1551.21 1381.77 1270.49 1082.25 964.67 906.96 838.535 756.625 727.494 692.101 660.258 634.89 614.146 582.081 561.712 545.043 516.216 509.485 470.353 441.986 419.504 416.221 458.692 444.022 414.983 414.066 386.877 398.445 382.276 361.678 346.97 354.867 354.586 336.556 323.209 317.776 322.699 331.518 297.589 286.369 277.728 283.584 259.744 238.719 270.002 272.765 261.582 246.708 238.931 230.327 238.859 245.948 264.08 270.045 244.363 238.421 224.599 206.515 207.415 204.855 217.411 204.94 194.239 192.137 176.151 160.67 161.146 162.44 159.479 150.723 148.449 136.046 130.9 131.588 128.593 119.646 105.183 101.757 91.334 85.8014 88.744 77.9323 70.3676 71.6912 74.1635 62.9887 60.7221 57.8885 55.5357 52.6799 51.3487 53.8118 47.31 50.1305 19.7914
255.5275 0.00025 6646.42 1673.9 1849.26 2003.3 1764.64 1549.76 1379.9 1275.35 1081.9 968.676 906.771 838.876 757.143 727.247 691.793 663.949 635.794 612.312 580.701 561.659 545.849 511.795 508.693 476.056 441.203 421.1 417.537 460.914 439.566 413.283 415.459 388.647 399.42 382.273 361.265 347.319 354.143 353.699 335.721 323.476 317.421 321.875 332.42 297.124 286.129 276.531 283.788 260.662 238.312 269.466 272.728 262.168 246.956 239.065 230.101 240.761 245.589 263.518 271.828 244.356 238.637 225.421 207.286 208.064 204.127 217.224 206.442 194.395 192.301 175.772 160.804 161.747 161.92 158.269 150.462 148.22 136.636 130.144 131.242 129.065 120.024 105.217 101.929 91.8288 86.3139 88.9009 77.9345 70.4555 71.8833 74.1938 63.0433 60.702 57.9711 55.4415 52.547 51.3634 53.7916 47.5854 50.3292 19.8425
255.53 0.00025 6631.25 1675.69 1851.7 2003.78 1779.22 1548.99 1378.07 1279.19 1082.07 973.293 906.275 838.414 757.809 726.944 691.312 667.572 636.828 610.427 579.261 561.381 546.494 507.244 508.151 481.442 440.881 422.441 419.07 462.992 435.232 411.739 416.77 390.692 400.008 382.457 360.97 347.617 353.274 352.879 334.906 323.774 317.116 321.074 332.757 297.08 285.89 275.207 283.641 261.562 238.253 268.767 272.413 262.863 247.38 239.157 230.009 242.408 245.441 263.191 273.31 244.454 238.863 226.147 208.035 208.726 203.529 216.845 207.996 194.675 192.482 175.324 160.966 162.308 161.499 157.01 150.174 147.975 137.229 129.448 130.852 129.467 120.426 105.272 102.08 92.3276 86.8593 89.0288 77.9502 70.5572 72.0743 74.1977 63.1257 60.657 58.0442 55.3794 52.3921 51.3833 53.7633 47.859 50.5324 19.8928
255.5325 0.00025 6614.59 1678.13 1853.53 2003.76 1793.9 1549.34 1376.33 1281.91 1082.92 978.45 905.391 837.241 758.43 726.728 690.783 670.912 638.078 608.591 577.782 560.855 546.866 502.917 507.645 486.278 441.503 423.275 420.837 464.77 431.198 410.298 418.049 392.971 400.185 382.816 360.797 347.882 352.257 352.111 334.168 324.043 316.845 320.355 332.485 297.449 285.639 273.842 283.121 262.412 238.533 267.938 271.834 263.63 247.979 239.193 230.101 243.754 245.517 263.126 274.485 244.665 239.095 226.789 208.756 209.384 203.077 216.289 209.552 195.103 192.682 174.808 161.155 162.813 161.176 155.72 149.843 147.731 137.806 128.817 130.418 129.807 120.836 105.354 102.211 92.8259 87.4415 89.1255 77.9779 70.6748 72.2654 74.1731 63.233 60.59 58.1037 55.3477 52.2203 51.4044 53.7294 48.1305 50.7412 19.9426
255.535 0.00025 6596.38 1681.14 1854.89 2003.51 1808.32 1551.21 1374.77 1283.37 1084.59 983.971 904.117 835.492 758.812 726.753 690.309 673.768 639.584 606.9 576.294 560.034 546.886 499.219 506.873 490.393 443.423 423.464 422.86 466.084 427.646 408.924 419.348 395.423 399.959 383.308 360.734 348.148 351.104 351.371 333.552 324.265 316.559 319.764 331.624 298.161 285.387 272.512 282.232 263.174 239.132 267.014 271.034 264.425 248.741 239.182 230.409 244.779 245.831 263.32 275.362 244.99 239.318 227.366 209.443 210.023 202.78 215.588 211.055 195.697 192.904 174.231 161.37 163.252 160.943 154.416 149.452 147.503 138.353 128.254 129.935 130.097 121.242 105.467 102.323 93.3189 88.0611 89.1948 78.0157 70.8107 72.4561 74.1219 63.3633 60.5067 58.1484 55.3444 52.0372 51.4229 53.6918 48.4 50.9556 19.9918
255.5375 0.00025 6576.74 1684.68 1856 2003.36 1822.15 1554.98 1373.55 1283.42 1087.24 989.631 902.54 833.301 758.766 727.17 689.958 676.018 641.314 605.451 574.836 558.865 546.522 496.516 505.518 493.729 446.773 423.047 425.104 466.776 424.721 407.621 420.703 397.973 399.407 383.864 360.759 348.447 349.859 350.63 333.098 324.431 316.21 319.32 330.243 299.106 285.155 271.275 281.014 263.803 240.022 266.03 270.065 265.202 249.635 239.141 230.947 245.472 246.393 263.733 275.947 245.436 239.514 227.897 210.087 210.628 202.631 214.779 212.451 196.469 193.144 173.604 161.607 163.619 160.789 153.122 148.99 147.301 138.858 127.766 129.396 130.354 121.635 105.615 102.42 93.8029 88.7205 89.2389 78.0592 70.9662 72.6443 74.0465 63.5138 60.4114 58.1759 55.367 51.8478 51.4358 53.6519 48.6663 51.1751 20.0404
255.54 0.00025 6555.83 1688.59 1857.11 2003.62 1835.22 1560.83 1372.95 1281.95 1090.96 995.229 900.809 830.808 758.129 728.074 689.784 677.62 643.162 604.319 573.472 557.321 545.801 495.057 503.359 496.306 451.422 422.26 427.492 466.741 422.482 406.426 422.115 400.531 398.648 384.401 360.859 348.797 348.584 349.821 332.836 324.529 315.754 319.034 328.439 300.149 284.983 270.163 279.535 264.259 241.163 264.997 268.992 265.924 250.611 239.097 231.717 245.842 247.209 264.33 276.259 246.011 239.67 228.401 210.689 211.192 202.619 213.911 213.694 197.432 193.403 172.94 161.858 163.914 160.697 151.865 148.447 147.127 139.306 127.361 128.793 130.584 122.003 105.8 102.5 94.2745 89.4223 89.2593 78.1028 71.1442 72.8305 73.9526 63.68 60.3076 58.1842 55.4124 51.6575 51.4396 53.6105 48.9294 51.4006 20.0885
255.5425 0.00025 6533.84 1692.73 1858.43 2004.62 1847.28 1568.8 1373.31 1278.96 1095.68 1000.65 899.13 828.129 756.783 729.44 689.861 678.624 644.965 603.534 572.255 555.431 544.782 494.88 500.334 498.203 457.022 421.475 429.934 465.924 420.931 405.42 423.55 403.027 397.812 384.814 361.032 349.203 347.37 348.861 332.795 324.535 315.175 318.896 326.336 301.148 284.905 269.187 277.878 264.509 242.503 263.929 267.883 266.574 251.61 239.092 232.71 245.926 248.276 265.077 276.321 246.722 239.776 228.894 211.265 211.709 202.727 213.034 214.736 198.589 193.68 172.252 162.112 164.14 160.643 150.667 147.825 146.985 139.682 127.049 128.121 130.792 122.341 106.02 102.567 94.7297 90.1638 89.2632 78.1424 71.3474 73.0132 73.8443 63.8567 60.2007 58.1717 55.4769 51.4718 51.4307 53.5683 49.1898 51.6324 20.1363
255.545 0.00025 6510.99 1696.87 1860.14 2006.56 1858.04 1578.69 1374.99 1274.62 1101.18 1005.88 897.668 825.39 754.663 731.135 690.29 679.149 646.52 603.093 571.211 553.311 543.547 495.793 496.618 499.486 463.13 421.067 432.372 464.327 420.016 404.718 424.936 405.404 397.039 384.986 361.281 349.655 346.336 347.677 333.007 324.411 314.486 318.879 324.06 301.989 284.928 268.357 276.132 264.532 243.988 262.836 266.8 267.152 252.563 239.162 233.896 245.773 249.559 265.938 276.161 247.583 239.824 229.393 211.822 212.17 202.932 212.196 215.538 199.931 193.978 171.559 162.36 164.308 160.601 149.542 147.127 146.881 139.983 126.835 127.384 130.97 122.647 106.271 102.626 95.1646 90.942 89.2568 78.1754 71.5783 73.1888 73.7248 64.0382 60.0956 58.1369 55.555 51.2959 51.4071 53.525 49.448 51.8703 20.184
255.5475 0.00025 6487.51 1700.73 1862.51 2009.64 1867.2 1590.09 1378.27 1269.28 1107.1 1010.93 896.574 822.69 751.809 732.934 691.183 679.351 647.637 603.004 570.358 551.152 542.166 497.41 492.599 500.166 469.335 421.305 434.793 462.019 419.621 404.44 426.177 407.609 396.456 384.81 361.621 350.133 345.594 346.213 333.469 324.104 313.729 318.947 321.714 302.588 285.035 267.676 274.382 264.333 245.547 261.73 265.8 267.665 253.397 239.327 235.24 245.442 251.008 266.878 275.803 248.598 239.804 229.904 212.368 212.578 203.209 211.436 216.077 201.443 194.298 170.886 162.591 164.428 160.548 148.507 146.351 146.815 140.204 126.718 126.592 131.101 122.923 106.553 102.679 95.5776 91.7527 89.2441 78.196 71.8374 73.3563 73.6006 64.2198 59.9964 58.0807 55.6432 51.1347 51.3682 53.4794 49.7042 52.1145 20.2315
255.55 0.00025 6463.67 1704 1865.79 2014.02 1874.67 1602.45 1383.35 1263.45 1113.04 1015.81 895.911 820.061 748.345 734.592 692.628 679.389 648.165 603.274 569.694 549.192 540.69 499.265 488.791 500.169 475.321 422.291 437.223 459.133 419.58 404.684 427.167 409.607 396.165 384.218 362.067 350.617 345.211 344.459 334.131 323.565 312.962 319.067 319.377 302.917 285.18 267.144 272.695 263.953 247.092 260.619 264.923 268.135 254.056 239.606 236.709 245.006 252.573 267.879 275.269 249.759 239.716 230.439 212.917 212.934 203.529 210.791 216.343 203.095 194.638 170.254 162.797 164.514 160.46 147.573 145.504 146.781 140.336 126.691 125.766 131.167 123.176 106.86 102.725 95.9683 92.5909 89.2333 78.2002 72.1251 73.5133 73.4771 64.3964 59.9078 58.0033 55.7378 50.9915 51.3131 53.4307 49.9591 52.3653 20.2792
255.5525 0.00025 6439.78 1706.35 1870.09 2019.85 1880.42 1615.16 1390.19 1257.76 1118.66 1020.5 895.739 817.482 744.508 735.9 694.667 679.424 648.005 603.879 569.213 547.67 539.132 500.936 485.697 499.406 480.876 423.993 439.691 455.898 419.705 405.52 427.826 411.365 396.227 383.172 362.613 351.092 345.212 342.474 334.913 322.77 312.246 319.208 317.111 302.985 285.294 266.768 271.121 263.453 248.531 259.525 264.195 268.594 254.499 239.995 238.271 244.545 254.192 268.931 274.588 251.049 239.572 231.012 213.473 213.242 203.869 210.283 216.342 204.851 194.999 169.688 162.968 164.577 160.311 146.755 144.598 146.773 140.378 126.737 124.936 131.148 123.404 107.189 102.771 96.3381 93.4485 89.2305 78.1881 72.4417 73.6574 73.3585 64.5627 59.8336 57.9048 55.8338 50.8696 51.2423 53.3774 50.213 52.6229 20.3272
255.555 0.00025 6416.24 1707.4 1875.45 2027.16 1884.67 1627.65 1398.65 1252.85 1123.67 1024.89 896.121 814.893 740.581 736.71 697.281 679.598 647.102 604.756 568.933 546.784 537.43 502.159 483.679 497.857 485.867 426.302 442.174 452.63 419.788 406.958 428.119 412.825 396.673 381.69 363.238 351.572 345.57 340.377 335.682 321.731 311.622 319.339 314.946 302.829 285.308 266.543 269.687 262.914 249.772 258.469 263.633 269.072 254.7 240.463 239.903 244.123 255.797 270.019 273.787 252.44 239.383 231.634 214.04 213.508 204.211 209.929 216.095 206.661 195.378 169.213 163.093 164.628 160.084 146.053 143.648 146.785 140.335 126.842 124.13 131.026 123.609 107.542 102.818 96.6878 94.317 89.24 78.1583 72.7862 73.7897 73.2502 64.7132 59.7753 57.7866 55.928 50.7709 51.1574 53.3174 50.4666 52.8873 20.3754
255.5575 0.00025 6393.28 1706.88 1881.72 2036.04 1887.59 1639.4 1408.49 1249.25 1127.89 1028.77 897.121 812.241 736.843 736.945 700.388 680 645.476 605.818 568.891 546.672 535.49 502.863 482.88 495.588 490.155 429.117 444.536 449.666 419.65 408.938 428.048 413.928 397.495 379.84 363.908 352.098 346.216 338.325 336.276 320.479 311.11 319.44 312.896 302.501 285.172 266.448 268.408 262.423 250.74 257.472 263.241 269.586 254.649 240.965 241.584 243.803 257.332 271.136 272.896 253.896 239.171 232.306 214.629 213.731 204.537 209.734 215.639 208.469 195.77 168.855 163.166 164.676 159.768 145.459 142.669 146.809 140.215 126.982 123.377 130.782 123.783 107.923 102.863 97.0199 95.1865 89.2653 78.1115 73.1545 73.9086 73.1551 64.8458 59.7354 57.6501 56.0168 50.6966 51.0607 53.2487 50.7199 53.1587 20.4242
255.56 0.00025 6371.22 1704.55 1888.55 2046.38 1889.36 1649.99 1419.38 1247.35 1131.21 1031.93 898.774 809.508 733.533 736.598 703.865 680.667 643.215 606.949 569.152 547.41 533.219 503.127 483.209 492.786 493.57 432.408 446.59 447.312 419.209 411.329 427.651 414.614 398.646 377.713 364.572 352.724 347.042 336.474 336.557 319.065 310.706 319.494 310.985 302.05 284.869 266.442 267.293 262.058 251.379 256.544 263.012 270.15 254.366 241.451 243.3 243.645 258.754 272.276 271.958 255.371 238.961 233.023 215.252 213.917 204.83 209.695 215.028 210.213 196.171 168.635 163.188 164.725 159.355 144.967 141.675 146.833 140.025 127.132 122.7 130.416 123.911 108.336 102.904 97.3397 96.05 89.3103 78.0518 73.5434 74.0145 73.0757 64.9595 59.716 57.4971 56.0963 50.6475 50.9548 53.1692 50.973 53.4375 20.4737
255.5625 0.00025 6350.38 1700.46 1895.49 2057.97 1889.96 1659.2 1430.91 1247.45 1133.62 1034.24 901.027 806.758 730.77 735.727 707.538 681.627 640.467 608.003 569.808 548.979 530.591 503.112 484.391 489.762 495.917 436.213 448.17 445.737 418.514 413.957 427.003 414.834 400.046 375.437 365.17 353.496 347.935 334.952 336.42 317.551 310.385 319.479 309.229 301.51 284.415 266.471 266.336 261.882 251.668 255.688 262.943 270.772 253.879 241.884 245.035 243.687 260.033 273.432 271.004 256.816 238.773 233.767 215.917 214.067 205.076 209.797 214.325 211.829 196.573 168.573 163.161 164.777 158.846 144.567 140.692 146.846 139.775 127.27 122.12 129.931 123.974 108.786 102.938 97.6513 96.8998 89.3773 77.9832 73.9491 74.1109 73.0135 65.0525 59.7173 57.3304 56.164 50.6231 50.8432 53.0765 51.2259 53.724 20.5241
255.565 0.00025 6331.09 1694.85 1901.91 2070.48 1889.4 1667.1 1442.57 1249.65 1135.2 1035.64 903.731 804.127 728.58 734.44 711.2 682.884 637.436 608.812 570.904 551.268 527.694 502.986 486.038 486.905 496.982 440.575 449.184 444.935 417.748 416.639 426.201 414.558 401.599 373.145 365.656 354.447 348.808 333.833 335.809 315.996 310.11 319.376 307.647 300.897 283.847 266.472 265.526 261.936 251.616 254.901 263.021 271.453 253.226 242.23 246.768 243.951 261.149 274.593 270.057 258.179 238.636 234.523 216.632 214.183 205.273 210.018 213.597 213.256 196.965 168.68 163.093 164.827 158.247 144.239 139.736 146.837 139.474 127.377 121.649 129.343 123.951 109.278 102.964 97.9593 97.7281 89.4642 77.9113 74.3656 74.1993 72.9689 65.1238 59.7382 57.1532 56.2175 50.6226 50.7293 52.9684 51.4782 54.0186 20.5756
255.5675 0.00025 6313.7 1688.01 1907.27 2083.4 1887.59 1673.9 1453.87 1253.92 1136.15 1036.15 906.661 801.816 726.9 732.894 714.63 684.455 634.368 609.237 572.447 554.113 524.736 502.851 487.759 484.609 496.605 445.496 449.635 444.72 417.178 419.177 425.313 413.77 403.195 370.974 365.991 355.596 349.593 333.118 334.725 314.463 309.82 319.167 306.261 300.219 283.21 266.385 264.859 262.227 251.255 254.167 263.231 272.185 252.443 242.465 248.472 244.442 262.099 275.747 269.15 259.412 238.578 235.278 217.406 214.275 205.422 210.332 212.916 214.443 197.331 168.962 163.001 164.869 157.568 143.961 138.826 146.792 139.136 127.44 121.294 128.669 123.824 109.814 102.98 98.2665 98.529 89.568 77.841 74.7866 74.283 72.9415 65.175 59.7775 56.9686 56.2542 50.6444 50.6167 52.8435 51.729 54.322 20.6284
255.57 0.00025 6298.36 1680.44 1911.25 2096.21 1884.51 1679.74 1464.41 1259.99 1136.75 1035.9 909.555 800.016 725.601 731.289 717.6 686.366 631.518 609.186 574.388 557.337 522.001 502.716 489.249 483.182 494.741 450.885 449.647 444.805 417.079 421.445 424.384 412.491 404.732 369.047 366.145 356.948 350.249 332.773 333.213 313.026 309.443 318.837 305.087 299.488 282.548 266.171 264.316 262.74 250.645 253.47 263.548 272.953 251.574 242.584 250.117 245.153 262.904 276.883 268.315 260.466 238.612 236.018 218.248 214.351 205.522 210.703 212.349 215.355 197.655 169.421 162.901 164.895 156.825 143.715 137.98 146.701 138.771 127.445 121.049 127.933 123.575 110.39 102.993 98.5746 99.2988 89.6863 77.7794 75.2055 74.366 72.9289 65.2081 59.8336 56.7803 56.2723 50.6866 50.5091 52.7005 51.9769 54.6348 20.6827
255.5725 0.00025 6285.19 1672.44 1913.71 2108.18 1880.23 1684.64 1474.03 1267.44 1137.34 1035.11 912.163 798.862 724.546 729.843 719.922 688.595 629.146 608.625 576.623 560.777 519.789 502.508 490.31 482.779 491.51 456.541 449.433 444.901 417.635 423.406 423.423 410.768 406.112 367.479 366.103 358.501 350.753 332.724 331.343 311.774 308.902 318.374 304.139 298.72 281.883 265.815 263.875 263.444 249.865 252.797 263.947 273.742 250.664 242.597 251.679 246.044 263.598 277.984 267.579 261.297 238.754 236.726 219.157 214.42 205.581 211.093 211.956 215.977 197.913 170.047 162.813 164.893 156.035 143.479 137.21 146.555 138.384 127.389 120.904 127.16 123.197 110.991 103.008 98.8836 100.035 89.8148 77.7345 75.6168 74.4517 72.9279 65.225 59.9035 56.5922 56.2705 50.7465 50.4098 52.5388 52.2204 54.958 20.7388
255.575 0.00025 6274.14 1664.43 1914.8 2118.53 1874.82 1688.5 1482.77 1275.8 1138.23 1034.06 914.29 798.426 723.616 728.772 721.482 691.073 627.496 607.558 578.993 564.254 518.396 502.122 490.886 483.339 487.218 462.175 449.243 444.811 418.876 425.095 422.416 408.673 407.242 366.361 365.859 360.252 351.084 332.868 329.202 310.795 308.111 317.771 303.428 297.935 281.209 265.32 263.503 264.289 249.003 252.134 264.407 274.528 249.749 242.522 253.148 247.058 264.223 279.024 266.96 261.884 239.008 237.39 220.127 214.499 205.611 211.464 211.777 216.312 198.08 170.823 162.762 164.856 155.218 143.239 136.526 146.347 137.978 127.274 120.848 126.369 122.689 111.602 103.034 99.1911 100.736 89.9487 77.7102 76.0155 74.5451 72.9362 65.229 59.9844 56.4078 56.2475 50.8218 50.3218 52.3583 52.4573 55.2925 20.7972
255.5775 0.00025 6265.44 1656.7 1914.85 2126.53 1868.48 1691.06 1490.78 1284.59 1139.6 1033.07 915.788 798.732 722.728 728.234 722.27 693.682 626.761 606.04 581.332 567.583 518.061 501.459 491.05 484.58 482.333 467.422 449.298 444.475 420.694 426.601 421.328 406.298 408.046 365.747 365.425 362.195 351.228 333.105 326.892 310.162 307 317.017 302.963 297.161 280.507 264.712 263.164 265.219 248.136 251.478 264.911 275.279 248.866 242.38 254.523 248.124 264.831 279.99 266.468 262.222 239.376 238.003 221.15 214.601 205.621 211.79 211.835 216.386 198.13 171.727 162.771 164.776 154.388 142.975 135.935 146.076 137.556 127.101 120.87 125.581 122.061 112.201 103.081 99.4958 101.402 90.0831 77.7111 76.396 74.649 72.9506 65.2239 60.074 56.231 56.2023 50.9105 50.2479 52.1601 52.6855 55.6397 20.858
255.58 0.00025 6258.85 1649.48 1914.16 2131.69 1861.52 1692.04 1498.29 1293.52 1141.55 1032.51 916.537 799.757 721.844 728.312 722.406 696.238 627.052 604.192 583.487 570.587 518.927 500.501 490.944 486.057 477.412 471.901 449.74 443.964 422.893 428.028 420.121 403.752 408.471 365.645 364.842 364.304 351.187 333.337 324.527 309.926 305.517 316.102 302.749 296.42 279.753 264.029 262.827 266.176 247.343 250.822 265.447 275.958 248.054 242.194 255.817 249.165 265.475 280.874 266.104 262.32 239.847 238.563 222.215 214.739 205.613 212.051 212.131 216.245 198.04 172.728 162.861 164.648 153.56 142.677 135.437 145.745 137.119 126.878 120.948 124.81 121.328 112.764 103.16 99.7962 102.032 90.2157 77.7414 76.755 74.767 72.968 65.2127 60.169 56.0657 56.1341 51.0098 50.19 51.946 52.9021 55.9995 20.9215
255.5825 0.00025 6254.36 1642.97 1912.99 2133.97 1854.22 1691.13 1505.48 1302.44 1143.97 1032.76 916.547 801.412 720.989 728.975 722.095 698.505 628.386 602.182 585.321 573.145 520.991 499.36 490.708 487.275 473.003 475.281 450.632 443.423 425.245 429.452 418.789 401.158 408.486 366.02 364.175 366.546 350.971 333.466 322.23 310.106 303.644 315.028 302.794 295.736 278.922 263.304 262.463 267.096 246.691 250.174 266.007 276.523 247.346 241.986 257.044 250.113 266.192 281.688 265.852 262.202 240.399 239.067 223.31 214.93 205.591 212.241 212.64 215.945 197.796 173.788 163.054 164.469 152.748 142.341 135.029 145.358 136.661 126.616 121.07 124.065 120.51 113.27 103.275 100.09 102.626 90.345 77.8027 77.0901 74.9015 72.9861 65.1983 60.2666 55.9153 56.0424 51.1169 50.1489 51.7182 53.1041 56.3721 20.9879
255.585 0.00025 6251.78 1637.3 1911.65 2133.71 1846.74 1688.08 1512.34 1311.36 1146.59 1034.18 915.935 803.512 720.277 730.081 721.616 700.221 630.686 600.211 586.718 575.227 524.077 498.283 490.415 487.804 469.552 477.342 451.978 443.033 427.56 430.879 417.342 398.649 408.068 366.81 363.51 368.864 350.609 333.398 320.125 310.669 301.393 313.791 303.092 295.118 278.002 262.566 262.054 267.917 246.233 249.546 266.588 276.932 246.771 241.781 258.219 250.917 267.005 282.459 265.685 261.908 241.01 239.517 224.419 215.188 205.555 212.371 213.316 215.549 197.391 174.866 163.361 164.241 151.958 141.966 134.704 144.924 136.177 126.329 121.219 123.354 119.629 113.703 103.429 100.378 103.181 90.4698 77.8939 77.3988 75.0532 73.0033 65.1844 60.3639 55.7826 55.9278 51.2296 50.1253 51.48 53.2882 56.7581 21.0577
255.5875 0.00025 6250.81 1632.52 1910.29 2131.53 1839 1682.75 1518.74 1320.45 1149.13 1036.99 914.977 805.796 719.905 731.424 721.27 701.173 633.816 598.478 587.578 576.898 527.85 497.626 490.034 487.401 467.315 477.99 453.71 442.98 429.72 432.24 415.79 396.357 407.212 367.937 362.935 371.179 350.15 333.055 318.338 311.54 298.805 312.387 303.633 294.569 276.998 261.832 261.591 268.585 246.005 248.952 267.191 277.143 246.353 241.608 259.351 251.546 267.917 283.227 265.574 261.489 241.65 239.922 225.516 215.529 205.508 212.461 214.097 215.117 196.832 175.919 163.791 163.97 151.198 141.552 134.452 144.454 135.663 126.027 121.378 122.679 118.702 114.053 103.621 100.664 103.695 90.5921 78.0138 77.6801 75.222 73.0189 65.1732 60.458 55.6699 55.7905 51.3458 50.1192 51.2349 53.4512 57.1579 21.1314
255.59 0.00025 6251.27 1628.53 1909.08 2128.13 1830.77 1675.18 1524.4 1329.91 1151.4 1041.19 914.083 807.975 720.118 732.795 721.306 701.221 637.606 597.155 587.822 578.288 531.881 497.767 489.454 486.083 466.303 477.266 455.7 443.418 431.677 433.432 414.161 394.385 405.953 369.314 362.527 373.408 349.655 332.378 316.981 312.613 295.968 310.829 304.393 294.086 275.932 261.109 261.068 269.058 246.021 248.412 267.815 277.126 246.106 241.503 260.442 252.003 268.903 284.04 265.485 260.993 242.295 240.286 226.586 215.961 205.45 212.536 214.911 214.705 196.143 176.903 164.347 163.667 150.469 141.105 134.26 143.961 135.113 125.727 121.536 122.044 117.75 114.312 103.84 100.954 104.163 90.7162 78.1602 77.9348 75.4075 73.0328 65.1664 60.5467 55.5793 55.6311 51.4636 50.1295 50.9868 53.5906 57.5714 21.2093
255.5925 0.00025 6252.81 1625.31 1908.14 2124 1821.74 1665.69 1528.9 1339.81 1153.41 1046.57 913.693 809.824 721.108 734.065 721.852 700.342 641.849 596.372 587.419 579.535 535.744 499.026 488.548 484.091 466.301 475.343 457.77 444.452 433.447 434.332 412.498 392.791 404.371 370.838 362.355 375.469 349.181 331.335 316.13 313.747 292.996 309.134 305.325 293.665 274.827 260.398 260.48 269.312 246.283 247.944 268.458 276.864 246.028 241.502 261.478 252.309 269.924 284.94 265.388 260.468 242.925 240.602 227.612 216.49 205.384 212.622 215.684 214.358 195.353 177.777 165.026 163.342 149.77 140.631 134.118 143.456 134.524 125.442 121.679 121.452 116.787 114.482 104.078 101.252 104.581 90.8456 78.3304 78.1638 75.6079 73.0462 65.1657 60.6287 55.5122 55.4508 51.5813 50.1546 50.7402 53.7034 57.9983 21.2919