255.5025 0.00025 0.129588 0.195815 0.298785 0.299941 0.29132 0.30216 0.289369 0.260489 0.240644 0.232145 0.228201 0.231269 0.240094 0.256115 0.262724 0.252092 0.243661 0.242857 0.241648 0.232124 0.221729 0.209375 0.200866 0.197839 0.19173 0.183105 0.178148 0.175576 0.171474 0.171236 0.171522 0.169616 0.166448 0.168695 0.168372 0.159717 0.151325 0.140633 0.13066 0.130921 0.130521 0.134854 0.14464 0.14456 0.139694 0.134525 0.129814 0.12393 0.118331 0.118786 0.123553 0.132164 0.133041 0.132809 0.133085 0.134998 0.132361 0.133623 0.135919 0.131819 0.120639 0.106942 0.0982102 0.0999304 0.100965 0.0986988 0.0939499 0.0916483 0.0865535 0.0832727 0.0820952 0.081096 0.0794556 0.0757113 0.0723777 0.0686558 0.0681771 0.067554 0.0616121 0.0551621 0.0522613 0.0496639 0.0472072 0.0440356 0.0418126 0.0415411 0.0407234 0.0372304 0.0342625 0.0325888 0.0323783 0.0325126 0.0327635 0.0327074 0.0317228 0.02937 0.0286437 0.0299389 0.0352118 0.0450734
255.505 0.00025 0.129055 0.196487 0.300154 0.300459 0.291648 0.30255 0.289265 0.260085 0.240537 0.23255 0.228984 0.232183 0.239662 0.255093 0.262638 0.252495 0.24338 0.242485 0.241566 0.231874 0.221658 0.210311 0.201545 0.198574 0.192205 0.183112 0.178746 0.176551 0.172234 0.171973 0.172896 0.170649 0.166794 0.169188 0.16889 0.159698 0.151562 0.140966 0.131047 0.131533 0.131248 0.135688 0.145408 0.145208 0.140008 0.134697 0.130018 0.124306 0.11878 0.11918 0.124046 0.13283 0.134139 0.133624 0.133559 0.135361 0.132453 0.133751 0.136025 0.132026 0.120859 0.107007 0.0981128 0.0997989 0.100645 0.0985628 0.0939182 0.0917779 0.086861 0.0834981 0.0821056 0.0811562 0.0795595 0.0756755 0.0723587 0.0688075 0.0679829 0.0675327 0.0617968 0.0553325 0.0524758 0.049874 0.0473256 0.0441292 0.0418398 0.041523 0.0408142 0.0373701 0.0343146 0.0326056 0.0324054 0.0325208 0.0327513 0.0327262 0.0318007 0.0294549 0.0286928 0.0299493 0.0351982 0.0450166
255.5075 0.00025 0.128704 0.1968 0.301228 0.300726 0.291812 0.302722 0.289103 0.259578 0.24025 0.232795 0.229905 0.233179 0.239373 0.253994 0.26227 0.252791 0.242971 0.24203 0.241315 0.231387 0.221376 0.21103 0.202181 0.19912 0.19245 0.182886 0.179196 0.177505 0.172951 0.172635 0.174094 0.171555 0.166914 0.169472 0.169235 0.159513 0.151637 0.141152 0.131364 0.131989 0.131832 0.136305 0.14581 0.145546 0.140064 0.134688 0.130104 0.124541 0.119076 0.119442 0.124436 0.133333 0.135071 0.134356 0.133938 0.135574 0.132468 0.133764 0.135955 0.132119 0.120987 0.106996 0.0979314 0.0995738 0.100236 0.0983302 0.0938105 0.0918614 0.0871411 0.0837185 0.082084 0.0811721 0.0796156 0.0756193 0.0722772 0.0689318 0.067778 0.0674756 0.0619673 0.0555047 0.0526908 0.0500943 0.0474467 0.0442219 0.0418616 0.0414855 0.0408781 0.0374834 0.0343427 0.0325945 0.0324081 0.0325077 0.0327186 0.0327202 0.0318543 0.0295214 0.028727 0.0299478 0.0351783 0.0449592
255.51 0.00025 0.128416 0.197023 0.302154 0.300825 0.291916 0.302862 0.289024 0.259092 0.239876 0.232978 0.230957 0.234268 0.239241 0.252872 0.261719 0.253017 0.242517 0.241583 0.241009 0.230806 0.221069 0.211615 0.202901 0.199621 0.192617 0.182607 0.179621 0.178531 0.173706 0.173301 0.175189 0.172467 0.166982 0.169707 0.169517 0.159286 0.15166 0.141294 0.131703 0.132419 0.132416 0.136852 0.146032 0.145764 0.140052 0.134652 0.130175 0.124737 0.11932 0.119668 0.124811 0.13379 0.135916 0.135072 0.134306 0.135733 0.132502 0.133757 0.135801 0.132176 0.121105 0.106985 0.0977433 0.0993347 0.0998159 0.0980763 0.0936932 0.0919466 0.0874298 0.0839635 0.0820658 0.0811712 0.0796535 0.0755719 0.0721725 0.0690575 0.0675915 0.0673983 0.0621275 0.0556887 0.0529186 0.0503359 0.0475831 0.0443247 0.0418883 0.041441 0.0409319 0.0375879 0.0343658 0.0325728 0.0324017 0.0324882 0.0326816 0.0327071 0.0319012 0.0295857 0.0287604 0.0299456 0.0351601 0.0449055
255.5125 0.00025 0.128226 0.197256 0.302971 0.300777 0.291984 0.302993 0.289043 0.258681 0.239447 0.233095 0.232077 0.235444 0.239258 0.251731 0.261036 0.253156 0.242024 0.241144 0.240675 0.230188 0.220818 0.212089 0.203747 0.200127 0.192726 0.182323 0.180033 0.179608 0.174489 0.173973 0.176187 0.1734 0.167065 0.169932 0.16976 0.15906 0.15166 0.141402 0.132065 0.13285 0.133038 0.137353 0.146133 0.145922 0.140029 0.134623 0.130253 0.124925 0.119547 0.119878 0.125181 0.13422 0.136666 0.135752 0.134677 0.135864 0.132588 0.133758 0.135581 0.132202 0.121229 0.106989 0.0975667 0.0990958 0.0993992 0.0978104 0.0935742 0.0920324 0.0877174 0.084227 0.0820598 0.0811634 0.0796876 0.0755436 0.0720624 0.0691871 0.0674299 0.067301 0.0622748 0.0558819 0.0531508 0.0505929 0.047733 0.0444357 0.0419188 0.0413892 0.0409747 0.0376852 0.034388 0.0325449 0.0323899 0.0324653 0.0326434 0.0326902 0.0319455 0.029653 0.0287983 0.0299467 0.0351454 0.0448575
255.515 0.00025 0.128019 0.197548 0.303727 0.300537 0.292031 0.303142 0.289192 0.258371 0.238965 0.233124 0.233216 0.236709 0.239429 0.250584 0.260273 0.253193 0.241516 0.240733 0.240317 0.229559 0.220652 0.212466 0.204716 0.200657 0.192766 0.182034 0.180434 0.180713 0.175317 0.174683 0.177092 0.174335 0.167192 0.17015 0.169959 0.158854 0.151643 0.141487 0.13246 0.13331 0.133716 0.137822 0.14615 0.146039 0.140018 0.134619 0.130345 0.125119 0.119772 0.120086 0.125552 0.13464 0.137312 0.136383 0.135054 0.135974 0.132732 0.133774 0.135309 0.132202 0.121361 0.107006 0.0974025 0.0988499 0.0989789 0.097517 0.093437 0.092109 0.0880014 0.084506 0.0820763 0.0811585 0.0797202 0.0755392 0.0719559 0.0693099 0.0672932 0.067186 0.0624077 0.0560777 0.0533794 0.0508586 0.0478914 0.0445553 0.0419556 0.0413341 0.0410104 0.0377814 0.0344145 0.0325165 0.0323771 0.0324412 0.032605 0.0326699 0.0319875 0.0297234 0.0288411 0.0299503 0.0351324 0.0448135
255.5175 0.00025 0.12774 0.197911 0.30439 0.300141 0.292093 0.303275 0.289489 0.258167 0.238443 0.233075 0.234354 0.238071 0.239769 0.249456 0.259469 0.253123 0.240999 0.240341 0.23992 0.228929 0.220564 0.21277 0.205762 0.201203 0.192718 0.181749 0.180831 0.181817 0.176211 0.175453 0.177898 0.175238 0.167374 0.170348 0.170094 0.158681 0.151618 0.141563 0.132897 0.133825 0.134462 0.138257 0.146106 0.146123 0.140034 0.134651 0.130452 0.12531 0.119989 0.120297 0.125925 0.135065 0.137875 0.13696 0.135435 0.136069 0.132931 0.133815 0.135009 0.132182 0.1215 0.107045 0.097254 0.0985994 0.0985554 0.0971865 0.093268 0.0921708 0.088282 0.084802 0.0821205 0.0811562 0.079746 0.075552 0.0718512 0.0694166 0.067181 0.067056 0.0625233 0.0562739 0.0536086 0.0511315 0.0480541 0.0446809 0.0420036 0.0412812 0.0410433 0.0378805 0.0344487 0.0324917 0.0323677 0.0324205 0.0325696 0.0326481 0.0320273 0.0297956 0.0288869 0.0299547 0.0351196 0.044772
255.52 0.00025 0.127493 0.198378 0.304984 0.299594 0.2922 0.303381 0.289944 0.258084 0.2379 0.232961 0.23546 0.239512 0.240275 0.248375 0.258661 0.252948 0.240486 0.239973 0.239486 0.228318 0.220545 0.213042 0.20683 0.201758 0.192576 0.181476 0.181238 0.182885 0.177177 0.176277 0.178595 0.176092 0.167622 0.170508 0.170143 0.158545 0.151591 0.141644 0.133369 0.1344 0.135264 0.138641 0.14601 0.146167 0.140074 0.134722 0.130568 0.125481 0.120198 0.120517 0.126294 0.1355 0.138371 0.137487 0.135814 0.136156 0.13319 0.133897 0.134698 0.132127 0.121641 0.107103 0.0971177 0.0983502 0.0981411 0.0968256 0.0930718 0.0922207 0.0885567 0.0851136 0.0821924 0.0811511 0.0797605 0.0755725 0.0717514 0.0695071 0.0670923 0.0669145 0.062621 0.0564731 0.0538414 0.0514096 0.0482168 0.0448075 0.0420616 0.0412295 0.0410751 0.0379815 0.0344911 0.0324719 0.0323629 0.0324048 0.0325396 0.0326274 0.0320655 0.0298683 0.0289337 0.0299591 0.0351072 0.0447336
255.5225 0.00025 0.12735 0.198967 0.30553 0.29892 0.292351 0.303448 0.290571 0.258129 0.237341 0.232788 0.236493 0.241009 0.240947 0.247358 0.257864 0.25265 0.239974 0.239616 0.239008 0.22775 0.220561 0.213325 0.207866 0.202332 0.192362 0.181235 0.181687 0.183886 0.178204 0.177151 0.179187 0.176882 0.16795 0.170638 0.170115 0.158458 0.151569 0.141733 0.133866 0.135038 0.136109 0.138955 0.145865 0.14617 0.140138 0.134827 0.130689 0.125636 0.120405 0.120751 0.126654 0.135939 0.138821 0.137974 0.136193 0.136243 0.133505 0.134023 0.13438 0.132026 0.121783 0.107189 0.0969995 0.0981107 0.097746 0.0964459 0.0928605 0.0922602 0.0888229 0.0854406 0.082289 0.0811445 0.0797661 0.0756002 0.0716666 0.0695878 0.0670259 0.0667672 0.0627065 0.0566786 0.0540764 0.0516883 0.0483807 0.0449342 0.0421236 0.0411769 0.0411062 0.0380845 0.034542 0.0324554 0.032359 0.0323911 0.0325131 0.0326076 0.0321026 0.029942 0.028982 0.0299646 0.0350963 0.0446991
255.525 0.00025 0.127288 0.199648 0.306022 0.298144 0.292564 0.303469 0.291353 0.258329 0.236783 0.232558 0.23743 0.242552 0.241762 0.246433 0.257102 0.252227 0.23948 0.239258 0.238478 0.227258 0.220594 0.213658 0.208816 0.202908 0.192094 0.181038 0.182211 0.184806 0.179291 0.17808 0.179694 0.177598 0.168367 0.170741 0.170026 0.158432 0.151547 0.141824 0.13439 0.135735 0.136979 0.139198 0.145685 0.146135 0.140223 0.134962 0.130813 0.12577 0.1206 0.120998 0.127013 0.136384 0.139244 0.138428 0.136568 0.136334 0.133872 0.134185 0.134053 0.131877 0.121924 0.1073 0.0969049 0.097885 0.0973793 0.096054 0.0926352 0.0922858 0.089083 0.0857815 0.0824126 0.0811442 0.0797631 0.075634 0.0716045 0.0696567 0.066976 0.0666191 0.0627791 0.0568843 0.0543078 0.0519667 0.0485498 0.0450632 0.042192 0.0411289 0.0411397 0.0381918 0.0346033 0.0324418 0.0323534 0.0323761 0.0324864 0.0325869 0.0321373 0.030017 0.0290333 0.0299729 0.0350876 0.0446676
255.5275 0.00025 0.127279 0.200407 0.306464 0.297345 0.292851 0.303436 0.292287 0.258687 0.236239 0.232269 0.238252 0.244114 0.242687 0.245613 0.25638 0.251687 0.239017 0.23888 0.237892 0.226858 0.220616 0.214082 0.209654 0.203479 0.191798 0.180885 0.18282 0.185661 0.180445 0.179082 0.180139 0.178242 0.168878 0.170822 0.169886 0.158475 0.151544 0.141934 0.134957 0.136491 0.137865 0.139382 0.14548 0.146072 0.140332 0.13513 0.130943 0.125881 0.12078 0.121258 0.127375 0.136828 0.139643 0.138841 0.136915 0.13642 0.134265 0.134366 0.133718 0.131681 0.122056 0.107441 0.0968356 0.09767 0.0970438 0.0956551 0.0923946 0.0922982 0.0893384 0.0861367 0.082566 0.0811517 0.0797492 0.0756714 0.0715622 0.0697044 0.066939 0.0664716 0.0628325 0.0570819 0.0545341 0.0522453 0.0487271 0.0452004 0.0422753 0.0410894 0.0411714 0.0382984 0.0346708 0.0324284 0.0323426 0.0323555 0.0324546 0.0325608 0.0321661 0.0300915 0.0290874 0.029983 0.035079 0.0446358
255.53 0.00025 0.12731 0.201236 0.306846 0.296553 0.293208 0.30335 0.293346 0.259196 0.235735 0.231927 0.23895 0.245658 0.243687 0.244924 0.255702 0.251028 0.238585 0.238472 0.237246 0.226554 0.220604 0.214601 0.210372 0.204018 0.1915 0.180768 0.1835 0.18645 0.181658 0.180158 0.180531 0.178808 0.169464 0.170865 0.169688 0.158564 0.15155 0.142064 0.135571 0.137283 0.138743 0.139515 0.145252 0.145989 0.140464 0.135328 0.131089 0.125975 0.120951 0.121539 0.127747 0.137258 0.140021 0.139209 0.137212 0.136483 0.134675 0.13457 0.133386 0.131431 0.122166 0.107603 0.0967827 0.0974592 0.0967421 0.0952584 0.0921446 0.0922987 0.0895854 0.0865051 0.0827511 0.0811673 0.0797274 0.07571 0.0715391 0.0697359 0.0669135 0.0663246 0.0628691 0.0572724 0.0547586 0.052522 0.0489124 0.0453478 0.0423734 0.0410527 0.0411938 0.038398 0.0347397 0.0324139 0.0323267 0.0323299 0.0324186 0.0325299 0.0321885 0.0301642 0.0291429 0.0299936 0.0350684 0.0446025
255.5325 0.00025 0.127377 0.202116 0.307165 0.295829 0.29363 0.303222 0.294486 0.259853 0.235312 0.23156 0.23952 0.247153 0.244733 0.244388 0.255057 0.250251 0.238192 0.238037 0.236547 0.226341 0.220554 0.215195 0.21099 0.204517 0.19123 0.180693 0.184228 0.187183 0.182906 0.181299 0.180881 0.179289 0.170099 0.170861 0.169439 0.15868 0.151562 0.14221 0.136233 0.138095 0.139599 0.139607 0.145001 0.145897 0.140618 0.135552 0.131256 0.12606 0.121122 0.121837 0.128128 0.137665 0.140373 0.139547 0.137457 0.136522 0.135101 0.134801 0.133065 0.131128 0.122241 0.107772 0.0967445 0.0972528 0.0964768 0.0948659 0.0918842 0.0922862 0.0898205 0.0868864 0.082965 0.0811922 0.0796977 0.0757492 0.0715409 0.0697627 0.066895 0.0661796 0.0628959 0.0574604 0.0549834 0.052796 0.0491047 0.0454989 0.0424761 0.0410116 0.0412031 0.0384885 0.0348079 0.0323975 0.0323075 0.0323024 0.0323815 0.0324968 0.0322053 0.0302332 0.0291987 0.0300049 0.0350559 0.0445687
255.535 0.00025 0.127477 0.203032 0.307412 0.295182 0.2941 0.303056 0.295666 0.260654 0.234989 0.231192 0.239961 0.248577 0.245795 0.24402 0.254436 0.249371 0.237847 0.237578 0.235799 0.226192 0.220482 0.215831 0.211539 0.204939 0.19101 0.180673 0.184982 0.187883 0.184171 0.182505 0.181206 0.179685 0.170762 0.170819 0.169164 0.158817 0.151578 0.142374 0.136949 0.13892 0.140431 0.139684 0.144733 0.1458 0.140788 0.135796 0.131451 0.126145 0.12129 0.122144 0.128515 0.138044 0.140699 0.139867 0.137659 0.136549 0.13554 0.135051 0.132751 0.130776 0.122275 0.107951 0.0967306 0.0970584 0.0962446 0.0944804 0.0916091 0.0922577 0.090041 0.0872755 0.083202 0.0812282 0.0796623 0.0757837 0.0715707 0.0697934 0.0668829 0.0660403 0.0629147 0.0576467 0.0552136 0.0530721 0.049304 0.0456475 0.042578 0.0409697 0.0412044 0.0385745 0.0348795 0.0323833 0.0322899 0.0322788 0.0323481 0.0324661 0.0322195 0.0302998 0.0292551 0.0300182 0.0350434 0.0445363
255.5375 0.00025 0.127597 0.203968 0.307575 0.294646 0.294603 0.302866 0.296841 0.261588 0.23477 0.230866 0.240293 0.249915 0.246848 0.243824 0.253823 0.248409 0.237556 0.237099 0.235013 0.226096 0.220417 0.216463 0.212048 0.205259 0.19085 0.180712 0.185728 0.18858 0.185442 0.183761 0.181527 0.180013 0.171432 0.170751 0.168881 0.158969 0.151605 0.142574 0.137724 0.139739 0.141226 0.139757 0.14444 0.145698 0.140965 0.13605 0.131672 0.126228 0.121451 0.122455 0.128912 0.138398 0.140988 0.140174 0.13782 0.136563 0.135979 0.135318 0.13246 0.130394 0.122266 0.108145 0.0967486 0.0968804 0.0960444 0.094105 0.0913146 0.092209 0.0902428 0.0876685 0.083462 0.0812796 0.0796232 0.0758121 0.0716273 0.0698361 0.066884 0.0659091 0.0629261 0.0578322 0.0554515 0.0533523 0.0495111 0.0457966 0.0426839 0.0409333 0.0412037 0.0386593 0.0349581 0.032375 0.0322761 0.0322603 0.0323185 0.0324392 0.0322338 0.0303667 0.0293139 0.0300346 0.0350321 0.0445057
255.54 0.00025 0.12773 0.204919 0.307651 0.294259 0.295139 0.302665 0.297979 0.262637 0.23466 0.23063 0.240532 0.25116 0.247859 0.243799 0.2532 0.24739 0.237329 0.236604 0.234198 0.226027 0.220396 0.217038 0.212551 0.205468 0.190762 0.180824 0.18643 0.189288 0.186707 0.185047 0.181869 0.180283 0.172089 0.170672 0.168609 0.15914 0.151657 0.142828 0.138563 0.140548 0.141978 0.139831 0.144125 0.145597 0.141145 0.13631 0.131919 0.126308 0.121608 0.122767 0.129317 0.138725 0.141242 0.140476 0.137943 0.136558 0.136409 0.135599 0.132192 0.129989 0.122209 0.108354 0.0968015 0.0967214 0.0958749 0.0937463 0.0910031 0.0921398 0.0904252 0.088064 0.0837383 0.0813447 0.0795832 0.0758348 0.071708 0.069894 0.0668982 0.0657862 0.0629293 0.0580121 0.0556908 0.05363 0.0497258 0.0459511 0.0427953 0.0409007 0.0412001 0.0387405 0.0350424 0.0323723 0.0322617 0.0322407 0.0322881 0.0324116 0.0322464 0.0304342 0.029375 0.0300527 0.0350208 0.0444756
255.5425 0.00025 0.127863 0.205855 0.307641 0.294023 0.295706 0.302466 0.29906 0.263788 0.234661 0.230525 0.240691 0.252292 0.248807 0.243936 0.252561 0.246345 0.237168 0.236102 0.233366 0.225962 0.220438 0.217511 0.213055 0.205583 0.190746 0.18102 0.187055 0.190022 0.187958 0.186333 0.18224 0.180496 0.172707 0.170593 0.168353 0.159316 0.151734 0.143143 0.139456 0.141332 0.142678 0.139916 0.143791 0.145501 0.141323 0.136568 0.132192 0.126391 0.121766 0.123073 0.129726 0.139033 0.141467 0.140786 0.138029 0.136531 0.136829 0.135892 0.131944 0.129564 0.122103 0.108565 0.0968818 0.0965745 0.0957305 0.0934135 0.0906778 0.092052 0.0905874 0.0884585 0.0840265 0.0814264 0.079547 0.0758539 0.0718111 0.0699672 0.0669227 0.0656717 0.0629255 0.0581828 0.0559288 0.0539039 0.049948 0.0461123 0.0429148 0.0408759 0.0411954 0.0388181 0.0351314 0.032374 0.0322433 0.0322168 0.0322544 0.0323811 0.0322558 0.0305016 0.0294385 0.0300729 0.0350093 0.0444465
255.545 0.00025 0.128001 0.206754 0.307547 0.293943 0.296303 0.302279 0.300052 0.265029 0.234768 0.230586 0.240798 0.253297 0.249674 0.244214 0.2519 0.245303 0.237062 0.235599 0.23252 0.225875 0.22056 0.217865 0.213548 0.205628 0.190808 0.181316 0.187584 0.19079 0.189196 0.187594 0.18265 0.180663 0.173257 0.170527 0.168119 0.15949 0.151838 0.14353 0.140394 0.14209 0.143329 0.140023 0.143449 0.14541 0.141495 0.13682 0.132493 0.126479 0.121927 0.123361 0.130123 0.139321 0.141658 0.141094 0.13809 0.136476 0.13723 0.136188 0.131713 0.129132 0.121947 0.108771 0.0969904 0.0964447 0.0956096 0.0931141 0.0903431 0.0919464 0.0907245 0.0888495 0.0843308 0.0815309 0.0795194 0.0758696 0.0719313 0.0700483 0.0669498 0.0655593 0.0629122 0.0583436 0.0561659 0.0541721 0.0501744 0.0462763 0.0430424 0.0408614 0.0411888 0.0388907 0.0352231 0.0323779 0.0322206 0.0321886 0.0322165 0.0323462 0.0322604 0.0305675 0.0295039 0.0300954 0.0349979 0.0444186
255.5475 0.00025 0.128138 0.207608 0.307394 0.294036 0.296927 0.302088 0.300932 0.266306 0.234988 0.230843 0.240888 0.254169 0.250455 0.244605 0.251203 0.244291 0.236997 0.2351 0.231664 0.225754 0.220765 0.21811 0.213999 0.205634 0.190925 0.181708 0.188003 0.19158 0.190428 0.188813 0.183104 0.180787 0.173718 0.170475 0.167914 0.159661 0.151972 0.143991 0.141362 0.142825 0.143933 0.140159 0.143109 0.145322 0.141656 0.137063 0.132819 0.126578 0.122097 0.123636 0.130505 0.139589 0.141818 0.141393 0.138132 0.136385 0.137597 0.136479 0.131505 0.128698 0.121732 0.108963 0.0971275 0.0963348 0.0955083 0.0928561 0.090009 0.0918227 0.0908349 0.0892387 0.0846547 0.0816591 0.0795033 0.0758828 0.0720655 0.0701388 0.0669794 0.0654481 0.0628903 0.0584979 0.0564016 0.0544334 0.0504012 0.0464407 0.0431759 0.0408554 0.0411781 0.0389561 0.0353146 0.0323838 0.0321963 0.0321591 0.0321755 0.0323079 0.032261 0.0306311 0.0295702 0.0301199 0.0349872 0.0443922
255.55 0.00025 0.128269 0.208382 0.307197 0.294272 0.297579 0.301867 0.301682 0.26758 0.235299 0.2313 0.240997 0.254891 0.251148 0.245081 0.250479 0.243332 0.236973 0.234613 0.230792 0.225596 0.221041 0.218269 0.214358 0.205634 0.191098 0.182183 0.188315 0.192384 0.191668 0.189977 0.183607 0.180892 0.17409 0.17045 0.167741 0.159831 0.152149 0.144535 0.142352 0.143543 0.144498 0.140325 0.142778 0.14523 0.1418 0.137295 0.13317 0.126687 0.122276 0.123903 0.130874 0.139837 0.141952 0.141682 0.138166 0.136255 0.137916 0.136763 0.131316 0.128271 0.121463 0.109136 0.0972871 0.0962455 0.0954213 0.0926413 0.0896788 0.0916803 0.0909227 0.089625 0.08499 0.0818057 0.0794987 0.0758928 0.0722129 0.0702416 0.0670134 0.0653369 0.0628595 0.0586457 0.0566336 0.0546845 0.0506267 0.0466052 0.0433108 0.0408539 0.041164 0.0390144 0.0354054 0.0323938 0.0321726 0.0321298 0.0321328 0.0322673 0.0322583 0.030692 0.0296367 0.0301467 0.034978 0.0443676
255.5525 0.00025 0.128396 0.209041 0.306961 0.294633 0.298229 0.3016 0.302265 0.268807 0.235689 0.231943 0.24115 0.255436 0.251747 0.245612 0.249739 0.242447 0.23698 0.234139 0.229901 0.225382 0.221367 0.218367 0.214585 0.205663 0.19133 0.182727 0.188539 0.193181 0.192922 0.191074 0.18415 0.180982 0.174369 0.170455 0.167604 0.159997 0.15238 0.145163 0.143345 0.144251 0.145029 0.140521 0.142472 0.145132 0.141921 0.137515 0.133539 0.126813 0.122471 0.124165 0.131221 0.140061 0.142071 0.141957 0.13821 0.136099 0.138193 0.137033 0.131141 0.127855 0.121152 0.109285 0.0974645 0.0961756 0.0953441 0.092469 0.0893592 0.0915237 0.0909877 0.089998 0.0853254 0.0819623 0.0795023 0.0758977 0.0723689 0.0703557 0.0670518 0.0652263 0.0628191 0.058788 0.0568601 0.0549242 0.0508502 0.0467699 0.0434464 0.0408581 0.0411482 0.039068 0.0354967 0.0324097 0.0321494 0.0321005 0.032089 0.0322249 0.0322523 0.0307497 0.0297035 0.0301761 0.0349703 0.0443446
255.555 0.00025 0.128508 0.209582 0.306726 0.295098 0.298874 0.301273 0.302675 0.269949 0.236152 0.23276 0.241374 0.255793 0.252246 0.246167 0.249002 0.241659 0.237019 0.233669 0.228976 0.225098 0.221728 0.218428 0.214645 0.205721 0.191633 0.183309 0.188703 0.193943 0.194182 0.192107 0.184722 0.181068 0.17456 0.17048 0.167504 0.160161 0.152669 0.145874 0.144325 0.144957 0.145534 0.140747 0.142201 0.145023 0.142016 0.137726 0.133926 0.126961 0.122684 0.124426 0.131544 0.140253 0.142184 0.14222 0.138269 0.135927 0.138429 0.137295 0.130987 0.127464 0.120805 0.109407 0.0976627 0.0961291 0.095271 0.092338 0.0890554 0.0913487 0.0910258 0.0903498 0.0856602 0.0821313 0.0795166 0.0758956 0.0725297 0.0704789 0.0670967 0.0651195 0.0627695 0.0589265 0.0570834 0.0551542 0.051073 0.0469363 0.0435834 0.0408689 0.0411291 0.0391159 0.0355883 0.0324303 0.0321252 0.0320703 0.0320445 0.0321796 0.0322428 0.0308043 0.0297708 0.0302086 0.0349641 0.0443227
255.5575 0.00025 0.128601 0.209986 0.306515 0.295611 0.299493 0.300881 0.30291 0.270996 0.236684 0.233733 0.241698 0.255969 0.252633 0.246719 0.248287 0.240966 0.237084 0.233195 0.228015 0.224736 0.222122 0.218472 0.214527 0.205797 0.192036 0.183912 0.188847 0.194659 0.195448 0.193081 0.185308 0.181165 0.174677 0.170519 0.167442 0.160323 0.153021 0.146653 0.145277 0.145666 0.146013 0.140997 0.141972 0.144905 0.142081 0.137926 0.134324 0.127131 0.12291 0.124684 0.131839 0.140401 0.142288 0.142466 0.138349 0.135743 0.13862 0.13754 0.130848 0.127095 0.120425 0.109498 0.09788 0.0961124 0.0952066 0.0922491 0.088774 0.0911543 0.0910384 0.0906809 0.0860006 0.082318 0.079547 0.0758885 0.0726901 0.0706091 0.0671501 0.0650217 0.0627128 0.0590672 0.0573066 0.0553781 0.0512982 0.047108 0.0437244 0.0408865 0.0411054 0.0391549 0.0356763 0.0324535 0.0320991 0.0320385 0.0319986 0.032131 0.0322296 0.0308564 0.0298382 0.0302437 0.034959 0.0443024
255.56 0.00025 0.128666 0.210249 0.306354 0.29617 0.300075 0.300434 0.302976 0.271918 0.237279 0.234834 0.242142 0.255978 0.252902 0.247243 0.247616 0.240373 0.237179 0.232715 0.22702 0.224291 0.222547 0.21852 0.21425 0.205868 0.192575 0.184527 0.189005 0.195321 0.196703 0.194007 0.185887 0.181283 0.17474 0.170559 0.167424 0.160489 0.153435 0.147497 0.146194 0.146375 0.146475 0.141269 0.141787 0.14477 0.14211 0.138118 0.134734 0.127326 0.123153 0.124951 0.13211 0.140499 0.142382 0.14269 0.138443 0.13555 0.138756 0.137759 0.130711 0.126745 0.120024 0.109557 0.0981077 0.0961203 0.0951447 0.092195 0.0885221 0.0909454 0.0910319 0.0909929 0.0863458 0.0825238 0.0795982 0.0758806 0.0728484 0.0707467 0.0672118 0.0649344 0.0626482 0.0592094 0.0575301 0.0555966 0.0515244 0.0472851 0.0438691 0.0409114 0.0410795 0.0391866 0.0357593 0.03248 0.0320725 0.0320057 0.0319519 0.0320793 0.0322134 0.030906 0.0299053 0.0302804 0.0349547 0.0442834
255.5625 0.00025 0.128705 0.210367 0.306242 0.296734 0.300613 0.299957 0.302871 0.272693 0.237936 0.23603 0.2427 0.25584 0.253042 0.247725 0.247008 0.239886 0.237305 0.232226 0.225991 0.22375 0.222994 0.218578 0.213845 0.205909 0.193268 0.185145 0.189198 0.195927 0.197919 0.194906 0.186438 0.181427 0.174764 0.170596 0.167451 0.160662 0.153917 0.148396 0.147078 0.147084 0.146932 0.141564 0.141643 0.144611 0.142097 0.138302 0.135147 0.127546 0.123407 0.125228 0.132357 0.140545 0.142464 0.142896 0.138549 0.135351 0.138832 0.137948 0.130569 0.126412 0.119614 0.109581 0.0983434 0.0961541 0.0950858 0.0921694 0.0883036 0.0907248 0.0910103 0.0912826 0.0866931 0.0827441 0.079671 0.0758818 0.0730067 0.0708908 0.0672795 0.0648571 0.062572 0.0593483 0.0577528 0.0558069 0.0517477 0.0474645 0.0440161 0.0409436 0.041056 0.0392157 0.035839 0.0325125 0.0320478 0.0319731 0.031906 0.0320261 0.0321951 0.0309536 0.0299721 0.030319 0.0349511 0.0442655
255.565 0.00025 0.128712 0.210331 0.306163 0.297273 0.301068 0.299476 0.302588 0.273315 0.238661 0.237288 0.243359 0.255566 0.253043 0.248153 0.246478 0.239506 0.237463 0.231712 0.224925 0.223112 0.223439 0.218648 0.213351 0.205889 0.1941 0.185763 0.189442 0.196481 0.199066 0.195794 0.186944 0.181602 0.174766 0.170622 0.167523 0.160854 0.154471 0.14934 0.147936 0.1478 0.147398 0.141882 0.141542 0.144428 0.142039 0.138481 0.135565 0.127794 0.123666 0.125516 0.13258 0.140533 0.142532 0.143087 0.138668 0.135162 0.138858 0.138106 0.130421 0.126093 0.1192 0.109571 0.0985835 0.0962112 0.0950338 0.0921689 0.0881276 0.0904974 0.0909771 0.0915488 0.0870384 0.0829719 0.079761 0.0758939 0.0731651 0.0710408 0.0673505 0.0647864 0.0624823 0.0594832 0.057971 0.0560042 0.0519619 0.0476412 0.044163 0.0409834 0.0410354 0.0392438 0.0359165 0.0325514 0.0320263 0.0319421 0.0318626 0.0319724 0.0321756 0.0309992 0.0300386 0.0303596 0.0349485 0.0442487
255.5675 0.00025 0.128678 0.21013 0.306089 0.297747 0.301389 0.299027 0.302126 0.273785 0.239463 0.238595 0.24411 0.255181 0.252904 0.248512 0.246035 0.239236 0.237637 0.23117 0.223837 0.222389 0.22386 0.218743 0.21281 0.205792 0.195046 0.186399 0.189744 0.197 0.200105 0.196674 0.187392 0.181809 0.17475 0.170625 0.167634 0.161075 0.155094 0.150316 0.148776 0.148519 0.147888 0.142222 0.141482 0.144224 0.141938 0.13866 0.135989 0.128065 0.123921 0.125817 0.132782 0.140467 0.142578 0.143264 0.1388 0.134997 0.138839 0.138226 0.130266 0.125778 0.118785 0.109529 0.0988227 0.0962966 0.0949947 0.0921951 0.088 0.0902701 0.0909369 0.0917898 0.0873765 0.0832053 0.0798634 0.075915 0.0733238 0.0711965 0.0674221 0.0647206 0.0623797 0.0596138 0.0581848 0.056187 0.0521644 0.0478146 0.044311 0.041032 0.0410171 0.0392693 0.0359905 0.0325956 0.0320077 0.0319135 0.0318224 0.0319191 0.0321551 0.0310431 0.0301053 0.030403 0.0349478 0.0442332
255.57 0.00025 0.128603 0.209779 0.306015 0.298142 0.301557 0.29862 0.301499 0.274112 0.240352 0.239933 0.244939 0.254702 0.252624 0.248795 0.245693 0.239071 0.237819 0.2306 0.222755 0.221604 0.224224 0.218872 0.21226 0.205625 0.196057 0.187073 0.190112 0.1975 0.201011 0.197549 0.187792 0.182045 0.174728 0.170609 0.167776 0.161336 0.15578 0.151314 0.149618 0.149235 0.148411 0.142592 0.141458 0.144 0.141795 0.138837 0.136413 0.12836 0.12417 0.126132 0.132965 0.140355 0.142603 0.143426 0.138941 0.134865 0.138779 0.138313 0.130106 0.125464 0.118373 0.109461 0.0990586 0.0964071 0.0949665 0.0922393 0.0879185 0.0900418 0.0908855 0.0920004 0.0877032 0.0834452 0.0799776 0.0759458 0.0734781 0.0713532 0.0674939 0.0646626 0.062266 0.0597379 0.0583947 0.0563562 0.0523548 0.0479855 0.0444603 0.0410893 0.0410006 0.0392914 0.0360598 0.0326436 0.0319916 0.0318859 0.0317846 0.0318656 0.0321325 0.0310845 0.0301715 0.030449 0.0349495 0.0442193
255.5725 0.00025 0.128476 0.209262 0.305903 0.29843 0.301562 0.298263 0.300725 0.274314 0.241323 0.2413 0.24584 0.254142 0.252215 0.248993 0.245453 0.239006 0.237995 0.229998 0.221697 0.220768 0.224492 0.219036 0.21174 0.205408 0.197071 0.187798 0.190546 0.197985 0.201763 0.198401 0.188158 0.182307 0.174703 0.170584 0.167945 0.161646 0.156517 0.152323 0.150472 0.14994 0.148973 0.142997 0.141464 0.143756 0.141607 0.139011 0.136836 0.128677 0.124417 0.126466 0.133138 0.140205 0.142605 0.143566 0.139082 0.134767 0.138685 0.138362 0.129939 0.125147 0.117971 0.109375 0.0992859 0.096537 0.0949493 0.0922926 0.0878773 0.0898144 0.0908215 0.0921813 0.0880168 0.083695 0.0801057 0.0759901 0.073625 0.0715083 0.0675669 0.0646134 0.0621435 0.0598555 0.0586036 0.0565158 0.0525355 0.048155 0.0446104 0.0411539 0.0409863 0.039311 0.0361227 0.0326943 0.0319775 0.0318576 0.031748 0.0318108 0.0321067 0.0311235 0.0302372 0.0304978 0.0349535 0.0442065
255.575 0.00025 0.128305 0.208613 0.305758 0.298612 0.301394 0.297955 0.299824 0.274385 0.242355 0.242679 0.246782 0.253519 0.251696 0.2491 0.245322 0.239026 0.238148 0.229359 0.220685 0.219899 0.22463 0.219225 0.211279 0.205163 0.198021 0.188576 0.19105 0.198464 0.202359 0.199201 0.18851 0.182584 0.17468 0.170562 0.168136 0.162014 0.157293 0.153337 0.151347 0.150625 0.149571 0.143442 0.141496 0.143496 0.141381 0.139184 0.13726 0.129016 0.124663 0.12682 0.133304 0.140027 0.142583 0.143678 0.139222 0.13471 0.138559 0.138373 0.129757 0.124822 0.117579 0.109274 0.0995033 0.0966849 0.094945 0.0923531 0.0878742 0.0895909 0.0907454 0.0923324 0.0883161 0.0839528 0.0802444 0.0760504 0.0737705 0.0716666 0.0676447 0.0645708 0.0620133 0.0599677 0.0588137 0.0566683 0.0527079 0.0483229 0.0447605 0.0412247 0.0409746 0.0393281 0.0361777 0.0327455 0.0319655 0.0318286 0.0317115 0.0317539 0.0320773 0.0311596 0.0303014 0.0305486 0.0349596 0.0441955
255.5775 0.00025 0.128081 0.207824 0.305575 0.298688 0.301071 0.297694 0.298814 0.27431 0.243427 0.244065 0.247763 0.252852 0.251084 0.249096 0.245294 0.239123 0.238255 0.228677 0.219731 0.219011 0.224623 0.219429 0.210901 0.204932 0.198867 0.189411 0.191631 0.198947 0.202812 0.199917 0.188874 0.182856 0.174644 0.170549 0.168348 0.162446 0.158095 0.154353 0.152255 0.15129 0.150205 0.143924 0.141546 0.143225 0.141123 0.13935 0.137676 0.129373 0.124909 0.127191 0.133466 0.139832 0.142542 0.143756 0.139354 0.134694 0.138404 0.138342 0.129564 0.12448 0.117201 0.109163 0.0997036 0.0968474 0.0949567 0.0924201 0.0879074 0.0893802 0.0906599 0.0924573 0.088598 0.0842118 0.0803906 0.076127 0.0739166 0.0718276 0.0677256 0.0645316 0.0618765 0.060071 0.0590222 0.0568144 0.0528718 0.0484893 0.0449126 0.0413027 0.0409666 0.0393442 0.0362263 0.0327982 0.0319578 0.0318009 0.0316762 0.031697 0.0320456 0.0311934 0.0303644 0.0306016 0.034968 0.0441864