255.5025 0.00025 -0.00420464 -0.00903859 0.0386856 0.0706593 0.0673066 0.0443611 0.033648 0.0386521 0.0311439 0.03017 0.0387231 0.0459158 0.0559502 0.0573522 0.0520856 0.0510137 0.053571 0.0473917 0.0498134 0.0542807 0.047604 0.0380835 0.035684 0.0261919 0.0186779 0.012819 0.0113405 0.0131933 0.0166443 0.0165981 0.00829265 0.00612985 0.00427705 0.00817406 0.0108952 0.0121565 0.0169271 0.0199311 0.0235449 0.0233442 0.0208926 0.0258675 0.0250953 0.0230686 0.0225958 0.0246014 0.0266159 0.0267549 0.0245661 0.02013 0.0162266 0.015721 0.0158165 0.0158051 0.0131656 0.00989767 0.00989442 0.00741355 0.00562592 0.00385766 0.00359347 0.00389686 0.00355813 0.00399047 0.00401461 0.00461801 0.00358994 0.00288025 0.00309889 0.00581569 0.00813156 0.00912597 0.0103537 0.0114836 0.0141714 0.0150287 0.0134294 0.0119813 0.0113872 0.0113754 0.011091 0.00958967 0.00866348 0.00844207 0.00842647 0.00812923 0.00708743 0.00616644 0.00624638 0.0060298 0.00481611 0.00442031 0.00420082 0.00346744 0.00281608 0.00189317 0.000953495 0.000578954 0.000254943 0.000115866
255.505 0.00025 -0.00206767 -0.00861894 0.0377716 0.070604 0.0679557 0.0457939 0.0343648 0.0386935 0.0309286 0.0298804 0.0380745 0.045393 0.0554396 0.0577977 0.0522104 0.0503532 0.053857 0.0469327 0.0480872 0.0534657 0.049296 0.0393877 0.0360912 0.0273343 0.0190451 0.0123188 0.0107204 0.0124612 0.015621 0.0149148 0.00742132 0.00566062 0.0040085 0.00685175 0.00985936 0.0128584 0.0177341 0.0200536 0.024148 0.0242287 0.0212335 0.0258764 0.025358 0.0235752 0.0228796 0.0250506 0.0271887 0.0274991 0.0252913 0.0205078 0.0160823 0.0155625 0.0160236 0.0161646 0.0132647 0.00992742 0.00970894 0.00693186 0.00552413 0.00395525 0.00360593 0.00388989 0.00353824 0.00411728 0.00425056 0.00471227 0.00363848 0.00288628 0.0031369 0.00577929 0.00813715 0.00914545 0.0103529 0.0113881 0.0139409 0.0149479 0.0136619 0.0121949 0.0114653 0.0113838 0.0111326 0.00965112 0.00868402 0.00839119 0.00838223 0.00815199 0.00714161 0.00618601 0.00623386 0.00605841 0.00487065 0.00440305 0.00419037 0.00349369 0.00282198 0.00191663 0.000959863 0.000588942 0.000267766 0.000118411
255.5075 0.00025 -0.00109146 -0.00852043 0.0367152 0.0705138 0.068282 0.0473537 0.0350565 0.0386139 0.0309427 0.0296203 0.037507 0.0449103 0.0548347 0.0580426 0.0525361 0.0498506 0.0540701 0.0465625 0.0466457 0.0523397 0.050633 0.0407489 0.0365951 0.028606 0.01971 0.0118038 0.00996221 0.0116471 0.0145808 0.0132571 0.00669625 0.00511744 0.00353358 0.00546365 0.00885076 0.0135036 0.0184033 0.0201431 0.0246383 0.0250422 0.0216021 0.0257423 0.0254308 0.0240094 0.0231437 0.0254259 0.0275046 0.0279617 0.0259533 0.0208849 0.015925 0.0153666 0.0161259 0.0164151 0.0133582 0.00994791 0.00946089 0.0063867 0.00538097 0.00403348 0.00359458 0.00387054 0.00347165 0.00417826 0.00442987 0.00474686 0.00364215 0.00286754 0.00316904 0.00572682 0.00811672 0.00914854 0.0103234 0.0112876 0.0136964 0.0147946 0.0138251 0.0123853 0.0115289 0.0113724 0.0111545 0.00969422 0.0086904 0.00832742 0.00832217 0.00815263 0.0071727 0.00618991 0.00621438 0.00607621 0.00492844 0.00439343 0.00417811 0.00352094 0.00282985 0.00193925 0.00096591 0.000597527 0.000280865 0.00012054
255.51 0.00025 -0.00133365 -0.00834322 0.0356986 0.0703627 0.0683318 0.0490686 0.0357521 0.0383748 0.031114 0.0294237 0.0370473 0.0444617 0.0541562 0.0580746 0.0529717 0.0495457 0.0542029 0.0462194 0.045535 0.0509727 0.051541 0.0420207 0.0371772 0.029939 0.0206568 0.0113879 0.00920556 0.0108058 0.0135898 0.01166 0.00609879 0.00457402 0.00295996 0.00411068 0.00788672 0.0141048 0.0190171 0.020272 0.024998 0.0257931 0.0220731 0.0256081 0.0254516 0.0244078 0.0234737 0.0258155 0.0276727 0.0282004 0.0265773 0.0212972 0.0157911 0.0151654 0.0161652 0.0165733 0.0134654 0.00998311 0.00919218 0.00584912 0.0052334 0.00412604 0.00359205 0.00385902 0.0033926 0.00420407 0.00458738 0.00475021 0.00363459 0.00285033 0.00321077 0.00567359 0.00809537 0.00915866 0.0102945 0.011205 0.0134582 0.0146005 0.0139401 0.0125734 0.0116034 0.0113502 0.0111631 0.00972836 0.00869004 0.00826245 0.00826458 0.00814411 0.00719465 0.00618898 0.00619411 0.00608675 0.00498841 0.0043918 0.00416635 0.00355307 0.00284487 0.00196432 0.000972409 0.000603564 0.000294269 0.00012237
255.5125 0.00025 -0.00189339 -0.00831918 0.0348619 0.0701252 0.0681139 0.0508872 0.0364684 0.0380107 0.0313849 0.0293534 0.03669 0.0440397 0.0534093 0.057896 0.0534309 0.0494283 0.0542505 0.0458479 0.0447614 0.0494654 0.0519869 0.0430994 0.0378097 0.0313014 0.0218114 0.0111426 0.00851215 0.00994584 0.0126369 0.0101423 0.00559671 0.00403206 0.00232038 0.00280339 0.00697495 0.0146606 0.0195635 0.0204467 0.0252007 0.0264095 0.0226301 0.0255389 0.0254841 0.0247615 0.023882 0.026247 0.0277515 0.0282349 0.027166 0.0217562 0.0157059 0.0149678 0.0161515 0.0166445 0.0135868 0.0100294 0.0089258 0.00536013 0.00511176 0.00424861 0.00360045 0.00385506 0.00331508 0.00421069 0.00473815 0.00473849 0.00362918 0.00283552 0.00325827 0.00561396 0.00806813 0.00918546 0.0102732 0.0111353 0.0132256 0.014383 0.0140057 0.0127533 0.011687 0.0113166 0.0111589 0.00975531 0.00868483 0.00819711 0.00820724 0.00812856 0.00721647 0.00619036 0.00617494 0.00608903 0.00504678 0.00439479 0.00415196 0.00358703 0.00286732 0.00199428 0.00098245 0.000606442 0.000306331 0.000124133
255.515 0.00025 -0.00205104 -0.00824297 0.0341481 0.0697292 0.067714 0.0527618 0.0372261 0.0375632 0.0316604 0.0294821 0.0364679 0.0436808 0.0526252 0.0575181 0.0538375 0.0494495 0.054232 0.0454452 0.0442839 0.0479504 0.0519587 0.0439469 0.0384427 0.0326991 0.0230823 0.0111332 0.00789016 0.00906371 0.0117099 0.00876629 0.00516214 0.0034626 0.00161716 0.00155115 0.00616909 0.015175 0.0200089 0.0206813 0.0252798 0.0268574 0.0232358 0.02557 0.0255625 0.0250562 0.0243536 0.0267327 0.0277889 0.0280965 0.0277135 0.0222624 0.0156865 0.0147821 0.0160939 0.0166269 0.0137092 0.0100815 0.00866028 0.00492582 0.00499884 0.00441344 0.00362043 0.00385629 0.00324552 0.00420134 0.00488991 0.00471688 0.00362504 0.00282099 0.00331171 0.00554575 0.00802269 0.00921914 0.010257 0.0110718 0.0129975 0.0141517 0.0140218 0.0129165 0.0117802 0.0112783 0.011142 0.00977367 0.00867283 0.00812481 0.00814578 0.00811258 0.00724194 0.00619826 0.00615808 0.00608455 0.00510199 0.00439975 0.00413178 0.00361651 0.00289282 0.00202765 0.000997867 0.000608779 0.000315943 0.000125362
255.5175 0.00025 -0.00205416 -0.0081045 0.033571 0.0691804 0.0671918 0.0546676 0.0380799 0.0371291 0.0318113 0.0298179 0.0363457 0.0433988 0.051856 0.0569942 0.0541571 0.0495739 0.0541801 0.0450226 0.0440088 0.0465239 0.0514623 0.0445635 0.0390158 0.0341189 0.0243802 0.0114039 0.00737719 0.00815949 0.0107953 0.0075893 0.00478651 0.00284466 0.000850923 0.000355771 0.00548376 0.0156372 0.0203459 0.0209977 0.0252784 0.0271309 0.0238689 0.0257334 0.0257059 0.0252758 0.024875 0.0272699 0.0278009 0.0278104 0.0281987 0.0228028 0.0157435 0.0146123 0.0160014 0.0165256 0.0138279 0.0101312 0.0083836 0.00453729 0.00486804 0.00460679 0.00365948 0.00386592 0.00318442 0.0041784 0.00504606 0.00469262 0.00362198 0.00282075 0.00338369 0.00548191 0.00796539 0.00925976 0.0102487 0.0110128 0.0127736 0.0139171 0.0139968 0.0130639 0.0118837 0.0112392 0.0111098 0.00977852 0.00865199 0.00804409 0.00807885 0.00809559 0.00726802 0.00621365 0.00614395 0.00607576 0.00515455 0.00440762 0.00410545 0.00363821 0.00291726 0.00206001 0.00101674 0.000613432 0.000325155 0.000125945
255.52 0.00025 -0.00207142 -0.00791647 0.033143 0.0683896 0.0665606 0.0565432 0.0389897 0.0367876 0.0318223 0.0303701 0.0363433 0.043143 0.0511415 0.0563617 0.0543902 0.0497634 0.0541123 0.0446063 0.0438326 0.0452541 0.0505519 0.0449592 0.0394533 0.0354888 0.0256199 0.0119485 0.00702455 0.00726983 0.009868 0.00658614 0.00444272 0.00218678 3.64513e-05 -0.000779167 0.00491541 0.0160388 0.020573 0.0213755 0.0252164 0.0272426 0.0245053 0.0260494 0.0259308 0.0254294 0.0254226 0.027846 0.0278134 0.0274116 0.0285974 0.0233625 0.0158753 0.0144658 0.0158864 0.0163652 0.0139246 0.0101704 0.00809323 0.00419312 0.00472061 0.0047987 0.0037088 0.0038763 0.00313235 0.00414278 0.00520279 0.00467115 0.00362984 0.0028469 0.00347765 0.00542892 0.00790388 0.00931 0.0102512 0.0109592 0.0125551 0.0136886 0.0139413 0.0131962 0.0119977 0.0112069 0.011066 0.00976826 0.00862312 0.00795688 0.00800728 0.00806909 0.00728626 0.00623101 0.0061302 0.00606329 0.00520458 0.00442012 0.00407564 0.00365306 0.00293987 0.00208838 0.00103529 0.000619976 0.000337137 0.000127209
255.5225 0.00025 -0.00208885 -0.00767995 0.0328618 0.0674426 0.0658342 0.0583148 0.0399052 0.0366175 0.0317212 0.0310962 0.0365262 0.0428993 0.0504754 0.0556434 0.0545637 0.0499762 0.0540441 0.0442603 0.0436859 0.0441821 0.0493206 0.0451558 0.0397473 0.036697 0.0267478 0.0127379 0.00685676 0.00638048 0.00891319 0.0057556 0.00412214 0.00151748 -0.000816026 -0.00184885 0.0044626 0.0163587 0.0206946 0.021797 0.025105 0.0272066 0.0251225 0.0265108 0.026247 0.0255372 0.0259663 0.0284385 0.0278472 0.0269422 0.0288839 0.0239286 0.016083 0.0143543 0.0157587 0.0161585 0.0139833 0.010191 0.00779891 0.00391716 0.00457765 0.00497804 0.00375835 0.00387619 0.00308761 0.00409111 0.00534562 0.00465294 0.00364896 0.00289233 0.00358738 0.00538535 0.00783236 0.00935729 0.0102645 0.0109146 0.0123473 0.0134703 0.0138604 0.013319 0.0121259 0.0111954 0.011023 0.00975481 0.00859187 0.00786714 0.00793078 0.00803289 0.00729234 0.00624495 0.00611421 0.00604591 0.0052494 0.00443668 0.00404383 0.00366107 0.00296136 0.00211342 0.00105323 0.000626648 0.000351361 0.000130019
255.525 0.00025 -0.0020738 -0.00740811 0.032821 0.0663191 0.0650273 0.0599126 0.0408322 0.036687 0.0315472 0.0319059 0.03692 0.0426602 0.0498628 0.0548593 0.0546808 0.0501781 0.053989 0.0440578 0.043533 0.0433077 0.0478991 0.0451568 0.0399314 0.0375997 0.0277685 0.0137191 0.00687994 0.00550155 0.00791659 0.00506882 0.00380056 0.000842474 -0.00171131 -0.0028457 0.00410913 0.0165979 0.0207283 0.0222346 0.0249492 0.0270438 0.025694 0.0270786 0.0266549 0.0256063 0.026482 0.0290266 0.0279159 0.0264436 0.0290468 0.024486 0.0163804 0.0142921 0.0156202 0.0159154 0.0140058 0.010175 0.00751778 0.0037158 0.00444908 0.0051511 0.00381276 0.00386706 0.00304475 0.00402162 0.00546583 0.00463821 0.00367411 0.00295085 0.00370766 0.00535279 0.00774975 0.00939874 0.0102863 0.01088 0.01215 0.0132611 0.0137593 0.0134351 0.0122674 0.0112082 0.0109865 0.00974659 0.00856563 0.00777767 0.00785377 0.00799784 0.00729548 0.00625927 0.00609535 0.00602463 0.00528861 0.00445772 0.00401167 0.00366212 0.00298278 0.00213752 0.00107242 0.000631641 0.000364521 0.00013299
255.5275 0.00025 -0.00203094 -0.00702961 0.0329582 0.0650534 0.0641815 0.0613042 0.041755 0.0369694 0.0313633 0.0327152 0.0375318 0.0424583 0.0493016 0.054008 0.0547318 0.0503302 0.0539174 0.0440205 0.0433659 0.0425859 0.0464155 0.0449344 0.0400671 0.0381198 0.0287696 0.0148351 0.00710349 0.0046644 0.00688142 0.00448069 0.0034609 0.00015897 -0.00263298 -0.00376177 0.00383638 0.0167295 0.0206825 0.0226565 0.0247613 0.0267953 0.0262108 0.0277034 0.0271414 0.0256608 0.0269567 0.0295862 0.0280269 0.0259513 0.0290738 0.0250068 0.0167642 0.0142645 0.0154632 0.0156494 0.0139909 0.0101198 0.007261 0.00358404 0.00432549 0.00531232 0.0038836 0.00385818 0.00300837 0.00394008 0.00555872 0.00462884 0.00370248 0.00302501 0.00383903 0.00533425 0.00766309 0.00943466 0.0103129 0.0108499 0.0119593 0.0130571 0.0136414 0.0135367 0.0124099 0.0112422 0.0109537 0.00974033 0.00854354 0.00769128 0.00778217 0.00797094 0.00730254 0.00628215 0.00607942 0.00600384 0.00532611 0.00448687 0.00398265 0.00365865 0.00300637 0.00216304 0.00109344 0.000634755 0.00037496 0.000134847
255.53 0.00025 -0.00197777 -0.00657925 0.0331828 0.0637489 0.063319 0.0624471 0.0427071 0.0374267 0.0312645 0.0334576 0.0383657 0.0423333 0.048824 0.0531024 0.0547176 0.0504172 0.0538179 0.0441494 0.0432017 0.0419745 0.0449848 0.0444475 0.0401865 0.0381697 0.029787 0.016045 0.00755416 0.00394545 0.00582772 0.00396163 0.00311083 -0.00051723 -0.00354346 -0.0045765 0.00364719 0.0167515 0.0205905 0.0230493 0.0245552 0.0265127 0.0266728 0.0283298 0.0277015 0.0257386 0.0273839 0.0300838 0.028172 0.0254958 0.0289616 0.0254694 0.0172227 0.0142744 0.0152942 0.0153716 0.0139377 0.0100292 0.00704019 0.00352466 0.00421859 0.00545774 0.00395995 0.00384417 0.00297822 0.00385653 0.00562422 0.00463017 0.00372579 0.00311521 0.00397453 0.0053254 0.00757514 0.00946407 0.0103389 0.0108195 0.0117719 0.0128607 0.0135106 0.0136206 0.0125485 0.0113042 0.0109319 0.00973344 0.00852241 0.00760857 0.0077171 0.00795171 0.0073112 0.00631394 0.00607171 0.00598643 0.00536306 0.00452445 0.00395819 0.00365192 0.00303274 0.00219061 0.00111578 0.000637743 0.000385236 0.000136853
255.5325 0.00025 -0.00191636 -0.00603506 0.0334864 0.0625178 0.0624011 0.0632191 0.0437589 0.0380482 0.0312889 0.0340731 0.0393606 0.0423609 0.0484373 0.0521717 0.0546328 0.0504575 0.0536771 0.0444221 0.0430553 0.0414101 0.0436971 0.043711 0.0402679 0.0377324 0.0308162 0.0172898 0.0082204 0.00339846 0.00478801 0.00350917 0.00276437 -0.00115899 -0.00441477 -0.00525733 0.00352026 0.0166406 0.0204734 0.0234086 0.0243416 0.0262487 0.0270852 0.0289241 0.0283386 0.0258663 0.0277586 0.0304952 0.0283545 0.0251101 0.0287179 0.0258465 0.017732 0.0143296 0.0151115 0.0150846 0.0138378 0.00989887 0.00687381 0.00355541 0.00413867 0.00558974 0.00403834 0.00383097 0.00295836 0.00378058 0.00566158 0.00464897 0.00374471 0.00321793 0.00410947 0.00532242 0.00748236 0.00948497 0.0103679 0.0107945 0.011594 0.0126773 0.0133724 0.0136857 0.0126796 0.0113908 0.0109244 0.00973223 0.00850646 0.0075322 0.00765886 0.00793764 0.00732022 0.00635438 0.0060711 0.0059707 0.00539568 0.00456589 0.00393708 0.0036418 0.00306093 0.00221974 0.00113929 0.000641626 0.000396503 0.000139704
255.535 0.00025 -0.00184796 -0.0054365 0.033818 0.0614337 0.0614742 0.063571 0.0449209 0.0387778 0.0314808 0.0345586 0.040428 0.0426128 0.0481772 0.0512308 0.0544611 0.0504919 0.053485 0.0448138 0.0429472 0.0408645 0.0425566 0.0427737 0.0402561 0.0368939 0.0317824 0.0185231 0.00904778 0.00306515 0.0037812 0.00309392 0.00238476 -0.00178769 -0.0051987 -0.00579056 0.00341123 0.0163773 0.0203374 0.0237278 0.0241416 0.0260528 0.0274521 0.029461 0.0290383 0.0260935 0.0280898 0.0307991 0.0285719 0.0248223 0.02836 0.026122 0.0182809 0.0144452 0.0149316 0.0148096 0.0137081 0.00973288 0.00675609 0.00366402 0.00407588 0.00569779 0.00412854 0.00382807 0.00295915 0.00371059 0.00566203 0.00468093 0.0037691 0.00334004 0.00424762 0.00532863 0.0073843 0.00949508 0.0103982 0.0107768 0.0114263 0.0125017 0.0132302 0.0137305 0.0127976 0.0114887 0.0109314 0.00974197 0.00849889 0.0074636 0.00760537 0.00792862 0.00733227 0.00640466 0.00607679 0.00595511 0.00542185 0.00460989 0.00391984 0.0036279 0.00308954 0.00225031 0.00116444 0.000645078 0.000406672 0.000142365
255.5375 0.00025 -0.00176603 -0.00480144 0.0342349 0.0605646 0.0605903 0.0634233 0.0462287 0.0396323 0.0318359 0.0349294 0.0414433 0.0431186 0.048048 0.0502937 0.0541819 0.050523 0.0532232 0.0452935 0.0428985 0.0403557 0.0415469 0.0417271 0.0400509 0.0358061 0.0326098 0.0197148 0.0099755 0.00296089 0.00283137 0.00268036 0.00197088 -0.00240457 -0.00588102 -0.00617345 0.00329546 0.0159738 0.0201847 0.0240084 0.0239606 0.0259629 0.027762 0.0299145 0.0297504 0.0264437 0.0283907 0.0309907 0.028815 0.0246517 0.0279141 0.026288 0.0188579 0.0146326 0.0147659 0.0145497 0.0135348 0.00952014 0.00666211 0.00383112 0.00402955 0.00578236 0.00424002 0.00384069 0.00297798 0.00364796 0.00562189 0.00471424 0.00379598 0.0034852 0.00439128 0.00534897 0.0072891 0.00950059 0.0104273 0.0107632 0.0112714 0.012329 0.013083 0.0137538 0.0129031 0.0115859 0.0109456 0.00975492 0.00849126 0.00739237 0.00755091 0.00792499 0.00734546 0.00645706 0.00608723 0.00594188 0.00544485 0.00465869 0.00390698 0.00360941 0.00311689 0.00228266 0.00119119 0.00064781 0.000415405 0.000144517
255.54 0.00025 -0.00167033 -0.00418043 0.0346631 0.0599427 0.059783 0.0627389 0.0476199 0.0406121 0.0323495 0.0352049 0.0423084 0.043873 0.0480685 0.0493944 0.0537958 0.0505605 0.0529053 0.0458475 0.0429139 0.0399303 0.0406299 0.0406724 0.0395665 0.0346421 0.033206 0.0208308 0.0109604 0.00308934 0.0019568 0.00223288 0.00152307 -0.00299302 -0.00643664 -0.00639968 0.00316251 0.0154233 0.0199947 0.0242548 0.0238198 0.0260043 0.0280024 0.0302691 0.0304426 0.0269319 0.0286762 0.0310718 0.0290653 0.0246118 0.0274051 0.0263399 0.0194551 0.0148955 0.0146206 0.0143039 0.0133088 0.0092682 0.00659275 0.0040559 0.00401475 0.00582804 0.00435461 0.0038573 0.00300946 0.00360401 0.00554935 0.00474625 0.003814 0.00364185 0.00453543 0.00538381 0.00720879 0.00950626 0.0104547 0.0107502 0.0111276 0.0121603 0.0129305 0.0137525 0.0129953 0.0116762 0.0109551 0.00975881 0.00847364 0.00730973 0.0074841 0.0079176 0.00735328 0.00650652 0.00610017 0.00593042 0.00546467 0.00471108 0.00389899 0.00358658 0.00314141 0.0023157 0.00121887 0.000651519 0.00042448 0.000146977
255.5425 0.00025 -0.00156999 -0.00360541 0.0350556 0.0595806 0.0591255 0.0615603 0.0490032 0.0417523 0.0329994 0.0354297 0.0429718 0.0448109 0.0482619 0.0485716 0.0533175 0.0505696 0.052534 0.0464413 0.0429837 0.0396333 0.0397732 0.0396498 0.0387634 0.033525 0.0335177 0.0218468 0.0119758 0.00343788 0.00121549 0.00175842 0.00101093 -0.00354905 -0.00683907 -0.00645593 0.00299311 0.0147063 0.0197356 0.0244753 0.0237566 0.0261906 0.028187 0.030528 0.031085 0.0275606 0.0289526 0.0310396 0.0292904 0.0246908 0.0268542 0.0262734 0.0200401 0.015221 0.0144915 0.0140717 0.0130472 0.00899325 0.0065612 0.00433433 0.00403639 0.00582779 0.00447153 0.00387724 0.00305649 0.00358165 0.00544398 0.00477681 0.00382792 0.00380545 0.00467474 0.00542601 0.00713858 0.00950648 0.0104814 0.0107396 0.0109921 0.0119944 0.012778 0.0137287 0.0130755 0.0117573 0.0109601 0.00975593 0.00845054 0.00722052 0.00740563 0.0079009 0.00735445 0.00655497 0.00611812 0.00592054 0.00547887 0.00476527 0.00389769 0.00356024 0.00316173 0.00234942 0.00124706 0.000655433 0.000433128 0.000149437
255.545 0.00025 -0.00146502 -0.00305266 0.0353983 0.0595023 0.0586711 0.0599702 0.0502657 0.043061 0.033806 0.0356312 0.0434454 0.0458807 0.0486635 0.0478789 0.0527536 0.0505282 0.0521155 0.0470482 0.0431013 0.0394727 0.0389654 0.0386483 0.0376653 0.0325089 0.0335502 0.0227191 0.0129555 0.00398709 0.000646892 0.00125739 0.000430988 -0.00407333 -0.00709808 -0.00634031 0.0027866 0.0138272 0.0193855 0.0246691 0.0237942 0.0265145 0.0283372 0.0307041 0.0316479 0.0283188 0.0292372 0.0309031 0.0294718 0.0248769 0.0262892 0.0260862 0.0205828 0.0156122 0.0143969 0.0138574 0.0127437 0.00872605 0.00656438 0.00465355 0.00408314 0.00579059 0.00459317 0.00390977 0.00311587 0.00357045 0.00530507 0.00479834 0.00384541 0.00398281 0.00481268 0.00546975 0.00707322 0.00950049 0.0105023 0.010732 0.0108634 0.0118248 0.0126226 0.0136796 0.0131445 0.0118278 0.0109647 0.00975322 0.00842844 0.00713234 0.00732544 0.00788469 0.0073538 0.00660022 0.00613905 0.00591138 0.00548824 0.0048196 0.00390186 0.00353143 0.00317791 0.00238496 0.00127657 0.000658985 0.000440679 0.000151516
255.5475 0.00025 -0.00135471 -0.00254956 0.0356229 0.0596535 0.0585043 0.0581317 0.0512342 0.0444668 0.03476 0.03584 0.0437314 0.0469846 0.0492887 0.0473764 0.0521356 0.0503831 0.051659 0.047643 0.043266 0.0394305 0.0382308 0.0376388 0.0363794 0.0315791 0.0333225 0.0234101 0.0138458 0.00469931 0.000268507 0.000736305 -0.000220889 -0.0045748 -0.00723026 -0.00606685 0.00253941 0.0128113 0.0189421 0.0248554 0.0239681 0.0269484 0.0284503 0.030799 0.0321212 0.0291687 0.0295561 0.0306904 0.0295996 0.025161 0.0257362 0.0257798 0.02106 0.0160599 0.0143433 0.0136545 0.0124114 0.00847202 0.00659234 0.00500623 0.00418119 0.00572716 0.00472264 0.00396277 0.00320101 0.00357789 0.00514151 0.00480554 0.00386949 0.00417672 0.00495397 0.00551807 0.00702025 0.0094928 0.010513 0.0107275 0.0107479 0.0116593 0.012467 0.0136062 0.0132027 0.0118898 0.0109713 0.0097536 0.00841067 0.00704657 0.00724413 0.00787131 0.00735542 0.0066456 0.00616426 0.00590531 0.00549343 0.00487091 0.00390996 0.00350119 0.00318989 0.00242131 0.00130725 0.000663218 0.000447757 0.000153526
255.55 0.00025 -0.00122438 -0.00207562 0.0356574 0.0600168 0.058609 0.056165 0.0517848 0.0458827 0.0358801 0.0360997 0.0438665 0.0480563 0.0500818 0.0471047 0.0515048 0.0501167 0.0511732 0.048187 0.0434782 0.0394789 0.0376063 0.0365751 0.0350616 0.0306764 0.0328954 0.0239115 0.0146107 0.00554012 8.24793e-05 0.000214629 -0.000934387 -0.00502782 -0.00725118 -0.00567257 0.00224118 0.0116789 0.018399 0.0250447 0.0243124 0.0274751 0.0285444 0.030817 0.0325029 0.0300674 0.0299249 0.0304279 0.0296737 0.0255175 0.0252162 0.0253833 0.0214644 0.0165611 0.01434 0.0134542 0.0120384 0.00824649 0.00663453 0.00538083 0.0043297 0.00563698 0.00484469 0.0040391 0.003317 0.00361042 0.00496922 0.00480194 0.00389659 0.00437866 0.00509923 0.00557591 0.00698582 0.0094881 0.0105148 0.0107223 0.0106475 0.0115043 0.0123217 0.0135123 0.013256 0.0119505 0.0109795 0.00975866 0.00839813 0.00696266 0.00715687 0.00785367 0.00735801 0.00669507 0.00619939 0.00590529 0.00549571 0.00492128 0.00392515 0.00347042 0.00319664 0.00245803 0.00133897 0.000668236 0.000454555 0.000155386
255.5525 0.00025 -0.00108181 -0.00163849 0.0354711 0.0605498 0.0589896 0.0542139 0.0517954 0.0472281 0.0371597 0.0364406 0.0438671 0.0490234 0.0509518 0.0470907 0.0509002 0.0497297 0.0506473 0.0486489 0.0437445 0.0395781 0.0371279 0.0354578 0.0338523 0.0297369 0.0323108 0.0242303 0.0152058 0.00646375 0.000105484 -0.000292686 -0.00171353 -0.00541133 -0.00719003 -0.00517872 0.00188218 0.0104234 0.0177178 0.0252007 0.0248193 0.0280554 0.0286423 0.0307698 0.0327838 0.0309508 0.0303487 0.0301325 0.0296887 0.0259312 0.0247602 0.0249108 0.0217874 0.0171027 0.0143881 0.0132557 0.0116315 0.00806175 0.00668502 0.00576167 0.00451815 0.00553049 0.00495652 0.00413614 0.00346692 0.0036677 0.00479879 0.00478853 0.00392365 0.00458215 0.00524711 0.00563845 0.00696546 0.00948486 0.010512 0.0107164 0.010559 0.0113596 0.012191 0.0134109 0.0133079 0.012013 0.010988 0.0097664 0.00839096 0.00688112 0.00706284 0.00782796 0.00735675 0.00674092 0.00623988 0.00591114 0.00549792 0.00497174 0.00394815 0.00343983 0.00319792 0.00249621 0.00137271 0.00067426 0.000461251 0.000157222
255.555 0.00025 -0.0009297 -0.00126909 0.0350665 0.0611391 0.0596301 0.0524155 0.0512434 0.0483869 0.0385556 0.0368775 0.0437621 0.0498857 0.0518185 0.0473754 0.0503763 0.0492539 0.0500934 0.0490104 0.0440791 0.0396833 0.0367945 0.034314 0.0328393 0.0287117 0.0316013 0.0243836 0.0156095 0.00740528 0.000320219 -0.000757773 -0.00254855 -0.00573272 -0.00706742 -0.00461145 0.00146703 0.00905896 0.0169123 0.0253219 0.0254606 0.0286452 0.028764 0.0306682 0.0329842 0.0317949 0.03085 0.0298395 0.0296538 0.026379 0.0243862 0.0243757 0.0220204 0.0176709 0.0144804 0.0130488 0.0111942 0.00792544 0.00674574 0.00613672 0.00474134 0.00541512 0.00505208 0.0042485 0.00364898 0.00374671 0.00463306 0.00475954 0.00394974 0.00478597 0.00539769 0.0057002 0.00695368 0.00947906 0.0105049 0.0107125 0.0104818 0.011224 0.0120735 0.0133047 0.0133578 0.0120802 0.0109928 0.00977445 0.00838965 0.00680305 0.00696326 0.00779423 0.00735213 0.00678032 0.00628103 0.00591852 0.00549755 0.00501818 0.00397672 0.00341082 0.00319444 0.00253551 0.00140851 0.000681072 0.000467963 0.000159279
255.5575 0.00025 -0.00077199 -0.000951299 0.0344516 0.0617118 0.0605112 0.0508456 0.0501236 0.0492524 0.0400318 0.0374691 0.043599 0.0506545 0.0526158 0.0479421 0.0499799 0.0487235 0.0494972 0.0492339 0.0444834 0.0397463 0.0365823 0.0332158 0.0320396 0.0275874 0.0307664 0.0244128 0.0158401 0.00829107 0.000721702 -0.00114499 -0.00339935 -0.00596018 -0.00689566 -0.00399607 0.00103236 0.00764689 0.0160272 0.0254171 0.0262299 0.0292434 0.0289526 0.0305343 0.0331328 0.0325819 0.0314255 0.0295772 0.029576 0.0268336 0.0241017 0.0237999 0.0221572 0.0182467 0.0146202 0.0128328 0.0107336 0.00783836 0.00682398 0.00650573 0.004987 0.00528946 0.0051262 0.00437372 0.00385998 0.00384724 0.00447389 0.00470799 0.00397286 0.00498591 0.00555209 0.00576205 0.00695414 0.0094737 0.0104909 0.0107088 0.0104162 0.0110954 0.0119682 0.0131905 0.013394 0.0121494 0.010992 0.00978217 0.00839503 0.00672988 0.00686045 0.00775211 0.00734492 0.006817 0.00632409 0.00592592 0.00549198 0.00505884 0.00401103 0.00338361 0.00318553 0.00257463 0.00144643 0.00068876 0.000474252 0.000161439
255.56 0.00025 -0.000609715 -0.000727352 0.0336153 0.0622284 0.0615995 0.0495761 0.0485104 0.0497299 0.0415093 0.0382384 0.0434534 0.0513362 0.0532966 0.04874 0.0497417 0.0481781 0.048866 0.0492628 0.0449399 0.039753 0.0364484 0.0322711 0.0314265 0.0264 0.0297881 0.024359 0.0159471 0.00905268 0.00129518 -0.00142268 -0.00423516 -0.00609992 -0.00669799 -0.00336154 0.000608558 0.00623729 0.0150974 0.0254901 0.0271108 0.0298575 0.0292498 0.0304115 0.0332419 0.0332854 0.0320529 0.0293659 0.0294561 0.0272579 0.0238988 0.0232022 0.0222064 0.0188221 0.0148117 0.0126104 0.0102635 0.00779086 0.00691297 0.0068624 0.0052508 0.00517412 0.00518855 0.00451182 0.00410037 0.00396641 0.0043303 0.00464017 0.00398851 0.00517096 0.00570917 0.00582475 0.00696787 0.00946752 0.0104709 0.010699 0.010359 0.0109726 0.0118711 0.0130674 0.0134098 0.0122174 0.010989 0.00979038 0.0084086 0.00666463 0.00675745 0.00770289 0.00733555 0.00684995 0.0063722 0.0059398 0.0054862 0.00509511 0.00405144 0.00335891 0.00317099 0.00261298 0.00148648 0.000697362 0.000480503 0.000163751
255.5625 0.00025 -0.000443184 -0.000604685 0.0325746 0.0625363 0.0628453 0.0486403 0.0465838 0.0497497 0.042904 0.0392072 0.0433755 0.0519119 0.0538549 0.0497078 0.0497048 0.0476292 0.0482008 0.0490665 0.0454345 0.0396857 0.0363399 0.0315824 0.0309486 0.0252001 0.0286657 0.0242404 0.0160227 0.00962542 0.00197887 -0.00159253 -0.00501544 -0.00614665 -0.00648927 -0.00277093 0.000197861 0.00486904 0.0141409 0.0255213 0.0280554 0.0304624 0.0296536 0.0303128 0.0333041 0.0338889 0.0326915 0.0292202 0.0293095 0.0276268 0.0237704 0.022601 0.022167 0.0193803 0.0150523 0.0123896 0.009803 0.00777631 0.00701615 0.0072115 0.00552791 0.00507754 0.00523637 0.00466065 0.00437057 0.00410477 0.00420748 0.00456023 0.00400038 0.00533749 0.00586544 0.00588725 0.0069912 0.00945518 0.0104434 0.0106795 0.0103076 0.0108566 0.0117848 0.0129424 0.0134126 0.0122875 0.0109848 0.00979744 0.00843303 0.0066117 0.00665806 0.00764879 0.00732544 0.00687934 0.00642523 0.00596274 0.00548352 0.00512694 0.00409747 0.00333795 0.00315154 0.00265005 0.00152885 0.00070695 0.000486269 0.000165983
255.565 0.00025 -0.00027697 -0.000605013 0.031338 0.0625937 0.0641477 0.0480314 0.0444933 0.0492601 0.0441196 0.0403865 0.0434513 0.0523606 0.0543164 0.0507765 0.0498721 0.0470896 0.0475193 0.0486246 0.0459083 0.0395541 0.0362417 0.0312179 0.0305715 0.024036 0.027386 0.024031 0.016129 0.00997517 0.00269185 -0.00166227 -0.00572654 -0.00612838 -0.00629617 -0.00226863 -0.000187876 0.00357472 0.013178 0.0254873 0.0290057 0.0310387 0.0301395 0.030221 0.0333006 0.0343856 0.0333172 0.0291732 0.0291517 0.0279329 0.0237055 0.0220092 0.0220436 0.0199016 0.0153353 0.0121732 0.00936641 0.0077975 0.00712971 0.00754866 0.00581248 0.00500644 0.00527083 0.00481774 0.00466073 0.00426089 0.00410254 0.00446723 0.00400728 0.00548766 0.00602587 0.00594934 0.00702369 0.00944148 0.0104088 0.0106524 0.010264 0.0107479 0.0117089 0.0128218 0.013407 0.012361 0.0109799 0.00979928 0.00846854 0.00657236 0.0065639 0.00758911 0.00731356 0.0069049 0.00647963 0.00598964 0.00548209 0.00515393 0.00414884 0.00332138 0.00312777 0.00268499 0.00157355 0.000717403 0.000491519 0.000168072
255.5675 0.00025 -0.000114325 -0.000739541 0.029965 0.0623556 0.0654235 0.0477502 0.0423318 0.0482338 0.0450732 0.0417506 0.0437691 0.0526926 0.0547146 0.0518793 0.0502498 0.0465828 0.0468486 0.0479658 0.0463053 0.0393616 0.0361551 0.0311973 0.0302824 0.0229221 0.0259666 0.0236996 0.0163149 0.0101215 0.00338523 -0.00163809 -0.00632538 -0.00605474 -0.00612053 -0.00189023 -0.000532127 0.00240582 0.0122597 0.0253735 0.0299164 0.0315879 0.0307086 0.0301558 0.0332339 0.0347728 0.0338992 0.0292499 0.0290087 0.0281781 0.0236913 0.0214485 0.0218509 0.0203651 0.0156419 0.0119592 0.00897167 0.00784977 0.00725321 0.00786723 0.00609819 0.0049573 0.00529209 0.00497527 0.00495922 0.00443517 0.0040197 0.0043642 0.004005 0.00561804 0.00619147 0.00601466 0.00706623 0.00943082 0.0103744 0.010622 0.0102284 0.0106475 0.0116411 0.0127073 0.0133869 0.0124332 0.0109757 0.00979152 0.00851038 0.00654531 0.00647512 0.00752254 0.00729716 0.00692458 0.00653362 0.00602078 0.00548198 0.00517559 0.004204 0.00330905 0.00309985 0.00271668 0.0016202 0.000729269 0.000496809 0.000169884
255.57 0.00025 4.00291e-05 -0.000965334 0.0285313 0.0618563 0.0666496 0.0477129 0.0402191 0.0466909 0.0456969 0.0432171 0.0443788 0.0528848 0.0550804 0.0529727 0.0508253 0.0461454 0.0462056 0.0471352 0.0465721 0.0391233 0.0361037 0.0315087 0.0300972 0.0218717 0.0244534 0.0232083 0.016594 0.010129 0.00394005 -0.0015783 -0.00679742 -0.00595028 -0.00597046 -0.00163673 -0.000821475 0.00138336 0.011404 0.0251647 0.030737 0.0321082 0.0313498 0.030145 0.033122 0.0350594 0.0344022 0.0294413 0.0288837 0.0283585 0.0237134 0.020941 0.0216133 0.0207594 0.015964 0.0117584 0.0086337 0.00792347 0.00736953 0.00816347 0.00637183 0.00493793 0.0053052 0.00512841 0.00525812 0.00462705 0.00396466 0.00426296 0.00399219 0.0057234 0.00635626 0.00608369 0.0071157 0.0094202 0.0103443 0.0105871 0.0101968 0.0105509 0.011578 0.0126007 0.0133514 0.0124981 0.0109735 0.00977128 0.00855447 0.00653145 0.00639159 0.00744794 0.0072763 0.0069405 0.00658938 0.00605891 0.0054853 0.00519226 0.00426195 0.00330103 0.00306854 0.00274453 0.00166868 0.000742427 0.000501784 0.000171562