255.5025 0.00025 0.00727781 0.0340615 0.0851461 0.125925 0.143671 0.152547 0.156313 0.157554 0.157803 0.154552 0.158768 0.158267 0.161351 0.157218 0.157433 0.155062 0.156468 0.154792 0.159707 0.166241 0.169946 0.17303 0.174361 0.175755 0.179667 0.184726 0.186964 0.191308 0.191372 0.18822 0.188019 0.181349 0.176915 0.172588 0.169825 0.165489 0.164198 0.162852 0.162891 0.162627 0.163514 0.161034 0.158188 0.155711 0.150723 0.146713 0.14236 0.13595 0.132119 0.128372 0.122399 0.121789 0.11919 0.11832 0.117078 0.116007 0.114718 0.111648 0.106353 0.100681 0.0970329 0.0930167 0.0907892 0.0877154 0.086815 0.0850584 0.0836727 0.0829189 0.0829456 0.0814082 0.0790942 0.0765767 0.0761749 0.0755294 0.0728896 0.0700057 0.0678167 0.0652207 0.0626254 0.0595502 0.0558745 0.0526322 0.0497691 0.0476597 0.0455981 0.0434449 0.0403012 0.0371696 0.0342952 0.0313903 0.0278685 0.0248572 0.021713 0.0188332 0.0159449 0.0129385 0.00990644 0.00647447 0.00355487 0.000714814
255.505 0.00025 0.00749867 0.0333765 0.0848479 0.125962 0.142881 0.152352 0.155834 0.157607 0.157909 0.154258 0.158285 0.158022 0.160891 0.157079 0.157233 0.154754 0.156356 0.154759 0.159605 0.166276 0.170271 0.173134 0.17433 0.175296 0.178756 0.184119 0.1865 0.190828 0.190587 0.188153 0.18808 0.181049 0.176881 0.172492 0.169974 0.165738 0.164372 0.163023 0.162974 0.162572 0.163553 0.161059 0.158093 0.155517 0.150651 0.146699 0.142379 0.136037 0.132054 0.128258 0.122257 0.12142 0.118746 0.117873 0.116734 0.115716 0.114416 0.111431 0.10641 0.100695 0.0970005 0.0929365 0.0905971 0.0875276 0.0865236 0.0848074 0.0833084 0.0825558 0.0826579 0.0811503 0.0788422 0.0763134 0.0758808 0.0752723 0.072765 0.0699185 0.0677238 0.0651641 0.0625997 0.0595951 0.05594 0.0526941 0.0498068 0.0476938 0.0455935 0.0434237 0.0402943 0.0372062 0.0343674 0.0314883 0.0279521 0.0249165 0.0217462 0.0188461 0.0159369 0.0129294 0.0099054 0.00647877 0.0035555 0.000714426
255.5075 0.00025 0.00738737 0.0332548 0.0847146 0.126105 0.14236 0.152286 0.155525 0.157828 0.158182 0.154286 0.158076 0.158061 0.16062 0.157136 0.157201 0.154591 0.156375 0.154876 0.159697 0.166514 0.170756 0.173437 0.17446 0.17514 0.178198 0.183857 0.18635 0.190647 0.19011 0.188396 0.188429 0.181105 0.177251 0.172704 0.170378 0.166272 0.164784 0.163332 0.163227 0.162654 0.16368 0.161147 0.158028 0.15528 0.150537 0.146641 0.142335 0.136084 0.131955 0.128082 0.122085 0.120995 0.118238 0.117413 0.116376 0.115403 0.114079 0.111183 0.106459 0.100714 0.0969906 0.0929165 0.0904651 0.0874422 0.086315 0.0846426 0.08303 0.0822819 0.0824582 0.0809862 0.0786852 0.0761334 0.0756318 0.0750327 0.0726756 0.069883 0.0676836 0.0651569 0.0626322 0.0596932 0.0560621 0.0527973 0.0498768 0.0477557 0.0456268 0.0434443 0.0403196 0.0372603 0.0344491 0.0315927 0.0280468 0.0249936 0.021801 0.0188823 0.0159489 0.012934 0.00991096 0.00648799 0.00356087 0.0007153
255.51 0.00025 0.00711898 0.0332952 0.0847478 0.126334 0.142024 0.152321 0.155315 0.158082 0.15846 0.154466 0.157987 0.158277 0.160447 0.157257 0.157218 0.154514 0.156466 0.155017 0.159849 0.166805 0.171254 0.173828 0.174633 0.175153 0.177851 0.183733 0.186326 0.190585 0.18976 0.188725 0.188827 0.181282 0.177758 0.173023 0.17087 0.166911 0.165258 0.163664 0.163554 0.162818 0.163841 0.161262 0.158009 0.155052 0.150427 0.146578 0.142265 0.136122 0.131851 0.127869 0.121902 0.120555 0.117709 0.116956 0.116003 0.115078 0.113728 0.110916 0.106512 0.100763 0.0970145 0.0929339 0.0903596 0.0874127 0.0861426 0.0845087 0.0827965 0.0820574 0.0822956 0.0808555 0.0785662 0.0759862 0.0754073 0.0747983 0.0725946 0.0698593 0.0676497 0.0651613 0.0626853 0.0598027 0.056203 0.0529138 0.0499592 0.0478258 0.0456738 0.0434769 0.0403543 0.037321 0.0345367 0.0317014 0.0281468 0.0250782 0.0218649 0.0189314 0.0159731 0.0129482 0.00992198 0.00650014 0.0035682 0.000716879
255.5125 0.00025 0.00689415 0.0332449 0.0848015 0.126603 0.141831 0.152402 0.155153 0.158342 0.158707 0.154708 0.15794 0.158605 0.160305 0.157348 0.157219 0.154494 0.156598 0.155145 0.160014 0.167083 0.171708 0.174256 0.174802 0.175253 0.177642 0.183653 0.186358 0.190574 0.18949 0.189065 0.189207 0.181514 0.178292 0.173377 0.171398 0.167575 0.165729 0.163986 0.163917 0.163037 0.163995 0.161373 0.158042 0.154842 0.150315 0.146505 0.14217 0.136149 0.131744 0.127629 0.121707 0.12011 0.11717 0.116501 0.115602 0.114733 0.11336 0.110621 0.106558 0.100846 0.0970744 0.0929907 0.0902714 0.0874123 0.0859902 0.0843917 0.0826014 0.0818612 0.0821484 0.0807363 0.0784598 0.0758522 0.0751963 0.07456 0.0725074 0.0698388 0.0676138 0.0651634 0.0627411 0.0599065 0.0563454 0.0530292 0.0500441 0.0478969 0.0457265 0.0435134 0.0403929 0.0373852 0.0346291 0.0318125 0.0282503 0.0251671 0.0219314 0.0189878 0.0160068 0.0129729 0.00994124 0.006517 0.00357644 0.00071842
255.515 0.00025 0.00675468 0.0331668 0.0848368 0.126851 0.141791 0.152534 0.155031 0.158607 0.158899 0.154987 0.157933 0.159021 0.16017 0.157372 0.15719 0.15455 0.156765 0.155239 0.160186 0.167337 0.1721 0.174705 0.174963 0.175401 0.177535 0.183576 0.186439 0.190589 0.189284 0.189401 0.18956 0.181786 0.17882 0.173757 0.171947 0.168219 0.166185 0.164301 0.164287 0.163293 0.164125 0.161469 0.15811 0.154638 0.150191 0.146418 0.142051 0.136164 0.131648 0.127393 0.121514 0.119669 0.116628 0.11605 0.115195 0.114389 0.112995 0.110313 0.106594 0.100961 0.0971574 0.0930626 0.0901809 0.0874283 0.0858496 0.0842873 0.0824361 0.0816791 0.0820039 0.0806133 0.0783539 0.0757301 0.0749917 0.0743135 0.07241 0.0698159 0.0675737 0.0651575 0.0627967 0.0599999 0.0564818 0.0531359 0.0501266 0.0479655 0.0457817 0.043552 0.040433 0.0374502 0.0347228 0.0319232 0.028355 0.0252579 0.0219979 0.0190484 0.016049 0.0130079 0.00997 0.00653959 0.00358634 0.000719826
255.5175 0.00025 0.0066558 0.0331437 0.0849075 0.127105 0.141893 0.152711 0.154952 0.158869 0.159049 0.155334 0.158006 0.159497 0.160041 0.157324 0.157119 0.154679 0.156962 0.15531 0.160365 0.167566 0.172431 0.175175 0.175141 0.175586 0.177521 0.183494 0.186548 0.19062 0.189134 0.189729 0.18987 0.182083 0.179328 0.174163 0.172523 0.16884 0.166635 0.164622 0.164656 0.163572 0.164227 0.161544 0.158206 0.154443 0.150053 0.146321 0.141914 0.136157 0.13155 0.127164 0.121324 0.119239 0.116099 0.115611 0.114797 0.114048 0.112641 0.110013 0.106626 0.101085 0.0972316 0.093126 0.0900721 0.0874451 0.085711 0.0841793 0.0822792 0.081502 0.0818582 0.0804831 0.078245 0.0756194 0.0747942 0.0740643 0.0723019 0.0697881 0.0675265 0.065139 0.0628518 0.0600813 0.0566137 0.0532383 0.0502126 0.0480363 0.0458425 0.043593 0.0404718 0.0375143 0.0348144 0.0320318 0.028459 0.0253498 0.0220638 0.0191108 0.0160977 0.0130505 0.0100061 0.00656781 0.00359849 0.000721369
255.52 0.00025 0.00656936 0.0331438 0.0850043 0.127374 0.142124 0.152949 0.154905 0.159118 0.15916 0.155741 0.158145 0.160021 0.159914 0.157224 0.157 0.154871 0.157195 0.155362 0.160536 0.167761 0.172707 0.175642 0.175368 0.175812 0.1776 0.183412 0.186677 0.190668 0.189028 0.190031 0.190124 0.182398 0.179806 0.174588 0.173145 0.16944 0.167081 0.164954 0.165015 0.163868 0.164292 0.161589 0.158328 0.154275 0.149915 0.146217 0.141767 0.136139 0.131453 0.126948 0.121135 0.118828 0.115602 0.115193 0.114415 0.113719 0.11231 0.109733 0.106652 0.101205 0.0972841 0.0931761 0.089942 0.0874518 0.0855706 0.0840592 0.0821307 0.081331 0.0817079 0.0803418 0.0781283 0.0755123 0.0746032 0.0738084 0.0721796 0.0697533 0.0674705 0.0651046 0.0629029 0.0601531 0.0567418 0.0533413 0.0503059 0.0481102 0.0459096 0.0436364 0.04051 0.0375763 0.0349044 0.0321392 0.0285613 0.0254414 0.0221282 0.0191721 0.0161472 0.0130948 0.0100447 0.00659857 0.00361141 0.000723058
255.5225 0.00025 0.00648391 0.0331176 0.0851037 0.127657 0.142486 0.153225 0.154915 0.159347 0.15922 0.156183 0.158348 0.16057 0.159809 0.157095 0.156833 0.155096 0.157462 0.155405 0.160668 0.167913 0.172942 0.176077 0.175666 0.176085 0.177763 0.183328 0.186809 0.190754 0.188956 0.190298 0.190331 0.182731 0.180243 0.17503 0.173819 0.170014 0.167525 0.165298 0.165361 0.164177 0.164324 0.161606 0.158464 0.154138 0.149773 0.146094 0.141615 0.13611 0.131354 0.126747 0.120939 0.118438 0.115149 0.114797 0.114047 0.113399 0.111994 0.109466 0.106657 0.101319 0.0973304 0.0932207 0.0897919 0.0874467 0.0854287 0.0839317 0.0819988 0.0811668 0.0815513 0.0801895 0.0780022 0.0754057 0.0744153 0.0735442 0.0720387 0.0697082 0.067405 0.0650522 0.0629482 0.060218 0.056867 0.0534431 0.0504035 0.0481845 0.0459814 0.0436847 0.0405508 0.0376404 0.0349954 0.032247 0.0286623 0.0255306 0.0221877 0.0192283 0.0161909 0.0131328 0.0100774 0.00662498 0.0036228 0.000724729
255.525 0.00025 0.00640905 0.0330735 0.0851791 0.127955 0.142986 0.15352 0.154998 0.159536 0.159222 0.156633 0.158606 0.161117 0.159725 0.156946 0.156628 0.155338 0.157763 0.155448 0.160734 0.168012 0.173136 0.176419 0.176023 0.17639 0.177988 0.183245 0.18692 0.190895 0.188922 0.190525 0.190505 0.183062 0.180636 0.175484 0.174523 0.170543 0.167953 0.165646 0.165678 0.164499 0.164337 0.161603 0.1586 0.154019 0.149629 0.145959 0.141467 0.136078 0.131258 0.126566 0.120743 0.118079 0.114743 0.114418 0.113696 0.113084 0.111688 0.109197 0.10663 0.101431 0.0973751 0.0932554 0.0896316 0.0874386 0.0852918 0.083804 0.0818838 0.081004 0.0813879 0.0800256 0.0778658 0.0752997 0.0742289 0.0732748 0.0718823 0.069652 0.0673286 0.0649808 0.0629905 0.0602782 0.0569844 0.0535348 0.0504954 0.048253 0.0460547 0.043738 0.0405941 0.0377062 0.0350861 0.0323545 0.0287627 0.0256197 0.0222444 0.0192792 0.0162267 0.0131596 0.0100969 0.00664229 0.00363137 0.000726232
255.5275 0.00025 0.00634318 0.0330234 0.0852144 0.128295 0.143594 0.153799 0.155155 0.159664 0.159173 0.157091 0.15892 0.161641 0.159658 0.156785 0.156384 0.155588 0.15808 0.155506 0.160727 0.168061 0.173299 0.176658 0.176428 0.176719 0.178272 0.183177 0.186979 0.191088 0.188924 0.190712 0.190645 0.183372 0.180984 0.175946 0.175241 0.17102 0.168362 0.166004 0.165969 0.164829 0.16434 0.161586 0.158727 0.153919 0.149482 0.145807 0.141309 0.136039 0.131171 0.126419 0.12056 0.117742 0.114371 0.11405 0.11336 0.112771 0.111384 0.108925 0.106568 0.101544 0.0974235 0.0932844 0.0894698 0.0874264 0.0851672 0.083683 0.0817854 0.0808459 0.0812183 0.0798512 0.0777235 0.075197 0.0740475 0.0730032 0.0717114 0.0695831 0.0672478 0.0648914 0.0630255 0.0603322 0.0570913 0.0536145 0.0505791 0.0483155 0.046127 0.0437928 0.0406352 0.0377687 0.0351727 0.0324603 0.0288614 0.0257098 0.0223022 0.0193286 0.0162587 0.0131787 0.0101069 0.00665404 0.00363782 0.000727478
255.53 0.00025 0.00628298 0.0329738 0.08522 0.128693 0.144271 0.154063 0.155373 0.159715 0.159085 0.157561 0.159279 0.162132 0.159607 0.156636 0.156106 0.155818 0.1584 0.155584 0.160655 0.168054 0.173428 0.176792 0.176864 0.177083 0.178625 0.183156 0.186981 0.19132 0.188963 0.190848 0.190752 0.183658 0.181281 0.176424 0.175972 0.171457 0.168752 0.166376 0.166243 0.16516 0.164329 0.161554 0.158849 0.153851 0.149347 0.14564 0.141132 0.135992 0.131093 0.126306 0.120394 0.117421 0.11403 0.113687 0.113031 0.112454 0.111079 0.108655 0.106479 0.101659 0.0974761 0.09331 0.0893085 0.0874039 0.0850543 0.0835691 0.081707 0.0807019 0.0810491 0.0796722 0.0775776 0.0750975 0.0738755 0.0727259 0.0715179 0.0694939 0.0671612 0.0647858 0.0630479 0.0603766 0.0571886 0.0536852 0.050658 0.048374 0.0461963 0.0438466 0.0406733 0.0378273 0.0352531 0.0325625 0.0289574 0.0258009 0.0223623 0.019378 0.0162903 0.0131984 0.0101187 0.00666847 0.00364459 0.00072866
255.5325 0.00025 0.00622935 0.0329133 0.085192 0.129156 0.144979 0.154338 0.155617 0.159688 0.158977 0.15804 0.159654 0.162582 0.159571 0.156521 0.155799 0.156008 0.158709 0.155685 0.160534 0.167982 0.173522 0.176831 0.177308 0.177498 0.179049 0.183184 0.186918 0.19158 0.189031 0.19092 0.19083 0.183916 0.181526 0.176924 0.176707 0.171871 0.169133 0.166757 0.166494 0.16549 0.164304 0.161509 0.158969 0.153823 0.149231 0.145465 0.140941 0.135932 0.131016 0.126212 0.120228 0.117111 0.113716 0.113327 0.112702 0.112129 0.110788 0.108406 0.106373 0.101779 0.097534 0.0933313 0.0891511 0.0873702 0.0849499 0.0834591 0.0816558 0.080586 0.0808871 0.0794945 0.0774293 0.0749993 0.0737142 0.0724476 0.0713038 0.0693843 0.0670725 0.0646673 0.0630583 0.060417 0.0572811 0.0537536 0.0507382 0.0484342 0.0462667 0.0439033 0.040712 0.0378863 0.0353284 0.0326604 0.0290517 0.0258939 0.0224258 0.0194296 0.0163253 0.0132247 0.0101386 0.00668789 0.00365298 0.000730079
255.535 0.00025 0.00618295 0.0328482 0.0851454 0.129678 0.145716 0.154641 0.155864 0.159578 0.158843 0.158497 0.160005 0.163 0.159566 0.156459 0.155472 0.156163 0.159 0.155825 0.160394 0.167844 0.173579 0.176813 0.177721 0.177968 0.179538 0.183273 0.186808 0.191849 0.189141 0.190936 0.190881 0.184146 0.181721 0.177448 0.177434 0.172269 0.169508 0.167141 0.166718 0.165818 0.164273 0.161467 0.159083 0.153828 0.149134 0.145287 0.140737 0.135864 0.130939 0.126126 0.120062 0.116816 0.113436 0.112975 0.112388 0.111801 0.110519 0.108189 0.106255 0.10189 0.0975953 0.0933436 0.0889949 0.0873219 0.0848489 0.0833514 0.0816329 0.0804997 0.080733 0.0793189 0.0772767 0.0749027 0.0735638 0.0721725 0.0710758 0.0692569 0.066981 0.0645384 0.0630587 0.0604597 0.0573729 0.0538262 0.0508232 0.0484997 0.0463413 0.0439664 0.040752 0.0379461 0.0353997 0.0327556 0.029145 0.0259872 0.0224924 0.019486 0.0163666 0.0132561 0.0101613 0.00670856 0.00366275 0.000731843
255.5375 0.00025 0.00614703 0.0328002 0.0850808 0.13025 0.146472 0.155007 0.156129 0.159377 0.15868 0.158913 0.160315 0.163378 0.159585 0.156446 0.155135 0.156295 0.159251 0.156005 0.160252 0.167638 0.173582 0.176783 0.178067 0.178492 0.180084 0.183414 0.186674 0.192093 0.189299 0.190914 0.190903 0.184352 0.181863 0.177977 0.178133 0.172661 0.169871 0.167527 0.166921 0.166153 0.16425 0.161441 0.159197 0.153867 0.149053 0.145113 0.140526 0.135789 0.130855 0.126043 0.119895 0.11654 0.113197 0.112642 0.112093 0.111473 0.110266 0.107991 0.10612 0.101996 0.0976635 0.0933453 0.0888373 0.0872537 0.0847482 0.0832421 0.0816301 0.0804392 0.080586 0.0791417 0.0771193 0.074807 0.073428 0.07191 0.0708442 0.0691172 0.0668871 0.0644 0.0630487 0.0605072 0.0574666 0.0539023 0.0509095 0.0485678 0.0464182 0.0440343 0.0407929 0.038007 0.0354699 0.0328498 0.0292364 0.0260777 0.0225608 0.0195468 0.0164134 0.0132893 0.0101819 0.00672822 0.00367268 0.000733616
255.54 0.00025 0.00612134 0.0327782 0.0850063 0.130865 0.147238 0.155445 0.156394 0.159084 0.158497 0.159282 0.160585 0.163699 0.159631 0.156488 0.15481 0.156426 0.159453 0.156217 0.160129 0.167381 0.173532 0.176776 0.178311 0.179061 0.18068 0.183608 0.186568 0.192287 0.189512 0.190877 0.190889 0.184539 0.181955 0.178498 0.178792 0.173049 0.170221 0.167917 0.167108 0.166488 0.164226 0.161432 0.159314 0.153929 0.148982 0.144946 0.140307 0.135707 0.130767 0.125964 0.119729 0.116283 0.112986 0.112328 0.111816 0.111143 0.110021 0.107799 0.105967 0.102096 0.0977367 0.0933448 0.0886944 0.0871738 0.0846565 0.0831317 0.0816338 0.0803952 0.0804404 0.0789609 0.0769535 0.0747019 0.0733038 0.0716619 0.0706085 0.068966 0.066787 0.0642532 0.0630238 0.0605594 0.0575611 0.0539782 0.0509926 0.0486344 0.0464925 0.044106 0.0408371 0.0380716 0.0355395 0.0329428 0.029325 0.0261635 0.0226281 0.0196075 0.0164619 0.0133246 0.0102038 0.00674867 0.00368263 0.000735371
255.5425 0.00025 0.00610912 0.0327851 0.0849213 0.131496 0.148016 0.155953 0.15668 0.158727 0.158318 0.159598 0.160814 0.163942 0.159711 0.156579 0.154499 0.156555 0.159592 0.156434 0.16004 0.167096 0.173417 0.176796 0.178431 0.179662 0.181314 0.183863 0.186532 0.192413 0.18978 0.190848 0.190837 0.184712 0.182009 0.178995 0.179408 0.173433 0.170558 0.1683 0.16727 0.166805 0.164195 0.161447 0.159435 0.154009 0.148925 0.144799 0.140085 0.135621 0.130691 0.1259 0.119572 0.116045 0.112802 0.11204 0.111559 0.110811 0.109778 0.107606 0.105797 0.102185 0.0978066 0.0933462 0.0885764 0.0870873 0.0845719 0.0830154 0.0816408 0.0803648 0.0802904 0.0787746 0.0767795 0.0745855 0.0731855 0.0714279 0.0703693 0.0688023 0.0666816 0.0641037 0.0629816 0.060611 0.0576553 0.0540529 0.0510714 0.0486995 0.0465633 0.0441816 0.0408871 0.0381423 0.0356085 0.0330357 0.029413 0.0262453 0.0226917 0.0196638 0.0165083 0.0133623 0.0102286 0.00676992 0.00369264 0.000737219
255.545 0.00025 0.00610733 0.03282 0.0848402 0.132113 0.148805 0.15651 0.156985 0.158302 0.158134 0.159835 0.161004 0.164107 0.159843 0.156716 0.15423 0.156687 0.159665 0.15663 0.160004 0.166814 0.173235 0.176834 0.178441 0.18028 0.181975 0.184177 0.186598 0.192449 0.190073 0.190833 0.190734 0.184871 0.182037 0.179452 0.179978 0.173814 0.170889 0.168671 0.167405 0.167095 0.16416 0.161487 0.159554 0.154092 0.148884 0.144677 0.139864 0.13553 0.130628 0.125851 0.119421 0.115826 0.11264 0.111783 0.111334 0.110484 0.109549 0.107418 0.105618 0.102269 0.0978841 0.0933524 0.0884776 0.0869886 0.0844885 0.0828946 0.0816531 0.0803538 0.08014 0.0785849 0.0765991 0.0744638 0.0730744 0.0712117 0.0701297 0.0686286 0.0665701 0.0639549 0.0629188 0.060654 0.0577443 0.0541244 0.0511458 0.048765 0.0466332 0.04426 0.0409391 0.0382152 0.0356755 0.0331286 0.0295027 0.026326 0.0227529 0.0197164 0.0165526 0.0134004 0.0102533 0.00679056 0.00370241 0.000739124
255.5475 0.00025 0.00611728 0.0328758 0.0847698 0.132696 0.149605 0.157105 0.157324 0.157824 0.157964 0.159983 0.161154 0.164185 0.160029 0.156903 0.154023 0.156817 0.159681 0.156794 0.160029 0.166562 0.17299 0.176862 0.178376 0.180901 0.182655 0.184556 0.186798 0.192407 0.190367 0.190853 0.190581 0.185025 0.182059 0.179851 0.180511 0.174201 0.171219 0.16903 0.167524 0.167363 0.164124 0.161556 0.159673 0.154173 0.148857 0.144579 0.139642 0.135431 0.130566 0.125799 0.119268 0.11562 0.112488 0.111556 0.111136 0.110165 0.109335 0.107242 0.105442 0.102357 0.0979721 0.0933698 0.0883922 0.0868675 0.0844003 0.0827744 0.0816739 0.0803658 0.079993 0.0783963 0.076416 0.07434 0.0729707 0.0710107 0.0698854 0.0684446 0.0664488 0.0638026 0.0628315 0.0606814 0.0578226 0.0541918 0.0512154 0.0488308 0.0467023 0.0443385 0.0409893 0.0382878 0.0357403 0.0332203 0.0295941 0.0264071 0.022815 0.0197691 0.0165968 0.0134376 0.0102769 0.00681069 0.00371158 0.000741057
255.55 0.00025 0.00613618 0.0329556 0.0847303 0.133238 0.150391 0.157711 0.157707 0.157314 0.157821 0.160057 0.161281 0.164192 0.160249 0.157132 0.1539 0.156948 0.159668 0.156915 0.160104 0.16636 0.172693 0.17685 0.178265 0.18149 0.183339 0.184982 0.187128 0.192308 0.190637 0.190908 0.190379 0.185167 0.18209 0.18018 0.180999 0.174597 0.17155 0.169365 0.167624 0.167592 0.164084 0.16165 0.159786 0.154241 0.148836 0.144497 0.139422 0.135322 0.130503 0.125738 0.119118 0.115426 0.112338 0.111363 0.11096 0.109855 0.109137 0.107084 0.10527 0.102448 0.0980649 0.0933997 0.0883226 0.0867306 0.0843131 0.0826617 0.0816971 0.0803999 0.0798529 0.0782132 0.0762316 0.0742076 0.0728658 0.0708226 0.0696348 0.0682486 0.0663151 0.0636467 0.0627214 0.0606927 0.0578915 0.0542551 0.0512805 0.0488959 0.0467704 0.0444171 0.0410386 0.0383609 0.035802 0.0333093 0.029685 0.0264871 0.0228784 0.0198233 0.0166422 0.0134764 0.0103018 0.00683108 0.00372041 0.000742948
255.5525 0.00025 0.00616031 0.0330547 0.084723 0.133723 0.151151 0.158315 0.158122 0.156812 0.157724 0.160071 0.161383 0.16413 0.160478 0.157408 0.153875 0.157085 0.159637 0.156994 0.160221 0.166219 0.17236 0.17677 0.178143 0.182009 0.183997 0.185444 0.187569 0.192186 0.190852 0.190995 0.190146 0.185294 0.182145 0.180436 0.181433 0.174998 0.171891 0.169674 0.167717 0.167776 0.164044 0.161767 0.159893 0.154293 0.14882 0.144428 0.139203 0.135201 0.130444 0.125672 0.118983 0.115251 0.112183 0.111193 0.110803 0.109556 0.108953 0.106937 0.105109 0.102539 0.0981537 0.0934359 0.088273 0.0865869 0.0842288 0.0825531 0.0817103 0.0804499 0.0797196 0.0780379 0.0760467 0.0740658 0.0727555 0.0706483 0.0693799 0.0680426 0.0661712 0.0634942 0.0626013 0.0606958 0.0579579 0.0543212 0.0513443 0.0489604 0.0468375 0.0444959 0.0410885 0.0384365 0.0358621 0.033396 0.0297755 0.0265649 0.022941 0.0198778 0.0166875 0.0135173 0.0103277 0.00685155 0.00372911 0.000744788
255.555 0.00025 0.00619084 0.0331611 0.0847536 0.134164 0.151856 0.158892 0.158569 0.156355 0.157679 0.16003 0.161456 0.164018 0.16071 0.157737 0.15395 0.157235 0.159592 0.157039 0.160373 0.166135 0.171995 0.176612 0.178039 0.182436 0.184609 0.18593 0.188095 0.192088 0.191 0.191106 0.189898 0.185399 0.182226 0.18062 0.181807 0.175396 0.172237 0.16995 0.167811 0.167915 0.164015 0.161909 0.159996 0.154335 0.148815 0.144373 0.13899 0.135071 0.130394 0.125606 0.118871 0.1151 0.112024 0.111043 0.110654 0.109267 0.108772 0.106798 0.104958 0.102626 0.098236 0.0934802 0.0882407 0.0864366 0.0841388 0.0824492 0.0817095 0.0805163 0.0795932 0.0778711 0.0758626 0.0739184 0.0726368 0.0704834 0.0691226 0.0678291 0.0660213 0.0633531 0.0624804 0.0606945 0.0580267 0.0543958 0.0514112 0.049026 0.0469046 0.0445748 0.0411402 0.038515 0.0359221 0.03348 0.0298659 0.0266412 0.0230023 0.0199317 0.0167323 0.0135593 0.010354 0.00687233 0.00373783 0.00074654
255.5575 0.00025 0.00622562 0.0332698 0.084828 0.134553 0.152482 0.159433 0.159046 0.155981 0.157683 0.159928 0.161497 0.163863 0.160942 0.158108 0.154131 0.157404 0.159535 0.157063 0.160557 0.166113 0.171601 0.176371 0.17797 0.182763 0.185149 0.186442 0.188678 0.192054 0.191084 0.191232 0.189662 0.185479 0.182336 0.180733 0.182106 0.175782 0.172591 0.170191 0.167919 0.168007 0.163996 0.162073 0.160099 0.154376 0.148824 0.14433 0.138788 0.134933 0.130351 0.125534 0.11878 0.114969 0.111859 0.110918 0.110518 0.108985 0.108595 0.106669 0.104819 0.102707 0.0983139 0.093543 0.0882311 0.0862876 0.0840447 0.0823518 0.0816904 0.080597 0.0794731 0.077709 0.0756798 0.0737673 0.0725129 0.0703293 0.0688636 0.0676052 0.0658622 0.063217 0.0623566 0.0606861 0.0580956 0.0544785 0.0514835 0.0490942 0.0469722 0.0446536 0.0411945 0.0385968 0.0359826 0.0335614 0.0299563 0.0267168 0.0230617 0.0199845 0.016775 0.0136011 0.0103813 0.00689376 0.00374648 0.000748234
255.56 0.00025 0.00626402 0.0333791 0.084937 0.134888 0.152978 0.159914 0.15952 0.155717 0.157737 0.159786 0.161514 0.163666 0.16118 0.158514 0.154428 0.157599 0.159473 0.157091 0.160762 0.166141 0.171178 0.176074 0.177945 0.182994 0.18561 0.186987 0.189297 0.192113 0.191112 0.191337 0.189444 0.185521 0.182466 0.180783 0.182329 0.176173 0.172952 0.170395 0.168045 0.168046 0.163985 0.16226 0.160199 0.154416 0.148842 0.144297 0.1386 0.13479 0.130312 0.125454 0.118712 0.114863 0.111691 0.110814 0.110404 0.108728 0.108418 0.106553 0.104698 0.102789 0.098394 0.093629 0.0882458 0.0861498 0.0839546 0.0822733 0.0816542 0.0806858 0.0793557 0.0775497 0.0754952 0.0736136 0.0723846 0.0701862 0.0686016 0.067369 0.065689 0.063079 0.0622241 0.0606644 0.0581573 0.0545619 0.0515565 0.0491644 0.0470417 0.0447331 0.0412519 0.0386825 0.0360441 0.0336391 0.0300456 0.0267915 0.0231196 0.0200359 0.0168159 0.0136426 0.0104096 0.00691534 0.00375494 0.000749864
255.5625 0.00025 0.00630734 0.0334889 0.0850659 0.135175 0.153316 0.160326 0.159974 0.155582 0.157827 0.159612 0.16152 0.163415 0.161424 0.158943 0.154847 0.157812 0.159408 0.157145 0.16099 0.166214 0.170731 0.175736 0.177961 0.183142 0.185974 0.187571 0.18993 0.192274 0.191107 0.191399 0.189256 0.18552 0.182613 0.18079 0.18248 0.176574 0.173328 0.170565 0.168195 0.168035 0.163985 0.162463 0.160295 0.154454 0.148864 0.144262 0.138424 0.134645 0.130275 0.125366 0.118669 0.114781 0.111524 0.110724 0.110314 0.108497 0.108238 0.106451 0.1046 0.102872 0.0984717 0.0937324 0.0882827 0.0860222 0.0838583 0.0822134 0.0816005 0.0807797 0.0792417 0.0773941 0.0753105 0.0734561 0.0722458 0.0700509 0.0683394 0.0671219 0.0655005 0.0629342 0.0620789 0.0606199 0.0582007 0.0546404 0.0516268 0.0492336 0.047113 0.0448132 0.041312 0.0387704 0.0361058 0.0337125 0.030133 0.026865 0.0231761 0.0200866 0.0168556 0.0136841 0.0104382 0.00693666 0.00376339 0.000751594
255.565 0.00025 0.00635466 0.0336042 0.0852015 0.135413 0.153463 0.160667 0.160381 0.155577 0.157952 0.15944 0.161535 0.163106 0.16169 0.159371 0.155382 0.158051 0.159372 0.157247 0.161231 0.166317 0.170265 0.175375 0.178024 0.183241 0.186233 0.188195 0.190559 0.192527 0.191105 0.191402 0.189105 0.185472 0.182769 0.18077 0.182559 0.176984 0.173706 0.170709 0.168372 0.167988 0.164 0.162671 0.160385 0.154497 0.148891 0.144223 0.138263 0.134502 0.130235 0.125269 0.118648 0.114722 0.111365 0.110638 0.110241 0.108293 0.108055 0.106365 0.104525 0.102949 0.0985339 0.0938416 0.0883303 0.0858952 0.0837482 0.082163 0.0815293 0.0808775 0.0791381 0.0772478 0.0751268 0.0732948 0.0720956 0.0699206 0.0680837 0.0668677 0.0653027 0.0627853 0.0619233 0.0605502 0.0582187 0.0547097 0.0516908 0.0492995 0.0471843 0.0448906 0.0413725 0.0388586 0.0361682 0.0337825 0.0302193 0.0269384 0.0232321 0.0201381 0.0168959 0.0137253 0.0104666 0.00695811 0.00377166 0.000753363
255.5675 0.00025 0.00640747 0.0337199 0.0853194 0.135609 0.153432 0.16094 0.160716 0.155705 0.158108 0.159287 0.161562 0.162737 0.161981 0.159774 0.156011 0.158309 0.159371 0.157422 0.161485 0.16644 0.169796 0.175003 0.17812 0.1833 0.186375 0.188855 0.19118 0.192855 0.191135 0.191341 0.188992 0.185376 0.182925 0.180739 0.182578 0.177395 0.174077 0.170834 0.168564 0.167907 0.164027 0.162875 0.160474 0.154554 0.148923 0.144177 0.138118 0.134358 0.130184 0.125164 0.118644 0.11468 0.111216 0.110557 0.110184 0.108116 0.107876 0.106292 0.104475 0.103018 0.0985877 0.0939566 0.0883885 0.0857745 0.0836279 0.082125 0.0814434 0.0809763 0.0790492 0.077112 0.0749465 0.073133 0.0719334 0.069793 0.067839 0.0666093 0.0650979 0.0626318 0.0617614 0.0604623 0.0582152 0.0547703 0.0517502 0.0493623 0.0472537 0.0449637 0.0414312 0.0389463 0.0362313 0.0338491 0.030305 0.0270132 0.0232887 0.0201907 0.0169371 0.0137665 0.0104956 0.00697948 0.00377913 0.00075501
255.57 0.00025 0.00646536 0.0338396 0.0854137 0.135766 0.153222 0.161133 0.160968 0.155963 0.158297 0.159162 0.161604 0.162324 0.162287 0.160152 0.156709 0.158583 0.159426 0.157687 0.161738 0.166568 0.169339 0.174618 0.178243 0.183331 0.1864 0.189539 0.191793 0.193238 0.191222 0.191215 0.188917 0.185249 0.18308 0.180709 0.182546 0.177803 0.174428 0.170947 0.168758 0.167798 0.164058 0.163066 0.16056 0.154624 0.148959 0.144123 0.137982 0.134217 0.130122 0.125051 0.118653 0.11465 0.111077 0.110471 0.110139 0.107969 0.107699 0.106227 0.104451 0.103085 0.0986442 0.0940836 0.0884557 0.0856649 0.0835037 0.0821014 0.081348 0.0810678 0.0789713 0.0769846 0.0747699 0.072974 0.0717624 0.0696649 0.0676045 0.0663471 0.0648851 0.0624727 0.0615944 0.0603644 0.0581979 0.0548255 0.0518083 0.0494222 0.0473209 0.0450333 0.0414904 0.0390339 0.0362962 0.033913 0.0303903 0.0270897 0.0233457 0.0202437 0.0169789 0.013808 0.0105252 0.0069998 0.00378534 0.000756349
255.5725 0.00025 0.00652831 0.0339614 0.0854778 0.135895 0.152875 0.161235 0.161137 0.156308 0.158527 0.159088 0.161671 0.161884 0.162584 0.16052 0.157439 0.158879 0.15955 0.158053 0.161967 0.166694 0.168926 0.174223 0.178402 0.183356 0.186311 0.190214 0.192393 0.193647 0.191376 0.19103 0.188857 0.185105 0.183227 0.180683 0.18247 0.178185 0.174741 0.171058 0.168942 0.167672 0.164089 0.163239 0.160642 0.15471 0.149 0.144065 0.137858 0.134084 0.130054 0.124941 0.118677 0.114637 0.110954 0.110381 0.110095 0.10784 0.107524 0.106168 0.104458 0.103148 0.0987076 0.0942269 0.0885435 0.0855714 0.0833774 0.0820893 0.0812507 0.0811452 0.0788965 0.0768577 0.0745919 0.072814 0.0715782 0.0695292 0.0673736 0.066076 0.0646602 0.0623043 0.0614198 0.0602557 0.0581635 0.0548761 0.0518682 0.0494828 0.0473895 0.0451021 0.0415516 0.0391215 0.0363633 0.0339742 0.0304739 0.0271666 0.0234023 0.0202959 0.0170203 0.0138495 0.0105553 0.00702001 0.00379117 0.000757516
255.575 0.00025 0.00659203 0.0340793 0.0855207 0.135985 0.15242 0.161239 0.161251 0.156719 0.158781 0.159057 0.161737 0.161455 0.162851 0.160896 0.158167 0.159214 0.159753 0.158519 0.162155 0.166807 0.16858 0.173815 0.178594 0.183388 0.186137 0.190859 0.192976 0.194059 0.191615 0.190828 0.188808 0.184964 0.183357 0.180662 0.182367 0.178529 0.175019 0.171182 0.169102 0.167538 0.164111 0.163384 0.16072 0.154811 0.149039 0.144001 0.137743 0.133963 0.129983 0.124842 0.118718 0.114642 0.110852 0.110286 0.110045 0.107729 0.107347 0.106107 0.10449 0.103207 0.0987711 0.0943748 0.0886489 0.085494 0.083251 0.0820871 0.0811561 0.0812026 0.0788241 0.0767313 0.0744152 0.0726574 0.071384 0.0693848 0.0671497 0.0658006 0.0644259 0.0621287 0.0612371 0.0601334 0.0581064 0.054916 0.0519268 0.0495445 0.0474604 0.0451712 0.0416152 0.0392086 0.0364328 0.0340331 0.030555 0.0272437 0.0234582 0.0203471 0.0170619 0.0138903 0.0105869 0.00704193 0.00379802 0.000758902
255.5775 0.00025 0.00665313 0.0341927 0.0855556 0.136038 0.151883 0.161148 0.161328 0.157183 0.159084 0.159079 0.161785 0.161064 0.163072 0.161301 0.15886 0.159592 0.160051 0.159085 0.162299 0.16691 0.168315 0.173392 0.178795 0.18343 0.185917 0.191467 0.193547 0.194456 0.191942 0.190637 0.188745 0.184825 0.183452 0.180644 0.182254 0.178833 0.17526 0.17132 0.169234 0.167406 0.164122 0.163497 0.16079 0.154925 0.149071 0.143931 0.137635 0.133848 0.129904 0.124753 0.11877 0.114669 0.110776 0.110194 0.109987 0.107636 0.107181 0.106056 0.10455 0.103262 0.0988376 0.0945186 0.0887672 0.0854267 0.0831233 0.0820896 0.0810677 0.0812346 0.0787554 0.0766092 0.0742424 0.0725018 0.0711829 0.0692336 0.0669376 0.0655264 0.0641872 0.0619513 0.0610485 0.0600005 0.0580293 0.0549412 0.0519823 0.0496063 0.0475315 0.0452397 0.0416798 0.0392942 0.0365044 0.0340899 0.0306338 0.0273216 0.023515 0.0203978 0.0171035 0.0139305 0.0106204 0.00706636 0.00380617 0.000760534