285.5025 0.00025 4.33706 4.18068 4.01104 3.47194 3.41835 3.20118 2.98423 3.08653 3.2048 3.50893 3.4524 3.56594 3.59789 3.51134 3.40712 3.44178 3.39383 3.54188 3.52099 3.35283 3.34935 3.48573 3.52566 3.55673 3.59001 3.75074 3.80091 3.77582 3.74273 3.44345 3.41341 3.25344 3.21103 3.0902 3.12759 3.11154 3.03805 3.04196 3.08693 3.00416 2.91654 2.9884 3.05168 2.9627 2.92372 2.97397 3.05146 3.15044 3.17364 3.28706 3.34923 3.37607 3.3917 3.30327 3.26371 3.25366 3.24405 3.14039 3.16261 3.16751 3.17926 3.24446 3.5112 3.60078 3.59918 3.62285 3.64621 3.77983 3.86946 3.84127 3.67261 3.56276 3.58481 3.62324 3.66178 3.51008 3.48154 3.51893 3.59584 3.70273 3.90112 4.17844 4.33658 4.42227 4.56598 4.4295 4.1229 3.8458 3.78718 3.76241 3.87407 3.93579 4.07146 3.79838 3.58714 3.516 3.46066 3.33948 3.31396 3.86281
285.505 0.00025 4.37705 4.21999 4.03106 3.47932 3.42977 3.21678 3.00364 3.10089 3.17059 3.53057 3.49458 3.5706 3.63629 3.53835 3.40527 3.44101 3.372 3.53138 3.52 3.40959 3.37107 3.48979 3.53493 3.55813 3.60923 3.7776 3.83877 3.78181 3.72515 3.44564 3.40947 3.26397 3.20686 3.09904 3.12646 3.10704 3.04034 3.0365 3.0891 3.01681 2.92005 2.98714 3.04921 2.96682 2.91921 2.96205 3.03055 3.1346 3.15188 3.2677 3.33324 3.37334 3.40513 3.30455 3.2627 3.25336 3.24696 3.14459 3.16648 3.16534 3.17001 3.22956 3.48034 3.59444 3.58768 3.6207 3.6375 3.75685 3.86674 3.85214 3.68937 3.55805 3.56928 3.60599 3.65966 3.52192 3.48382 3.51453 3.58726 3.69058 3.88692 4.1667 4.33364 4.41679 4.55977 4.44686 4.14837 3.86598 3.7864 3.75638 3.86616 3.93219 4.08565 3.82965 3.6066 3.51924 3.45933 3.3379 3.31259 3.85869
285.5075 0.00025 4.41595 4.25353 4.04368 3.48113 3.43187 3.23373 3.02979 3.11186 3.14653 3.52863 3.5475 3.5728 3.65711 3.58283 3.40799 3.43626 3.36069 3.51356 3.51384 3.45702 3.39422 3.49836 3.53964 3.55816 3.62845 3.79989 3.87927 3.78437 3.70613 3.45185 3.40751 3.27489 3.2045 3.10981 3.12589 3.10114 3.04411 3.03146 3.08819 3.02872 2.92579 2.98538 3.04375 2.9731 2.91686 2.95134 3.01139 3.11693 3.13034 3.24728 3.31549 3.36769 3.41683 3.30711 3.26145 3.25303 3.25083 3.14845 3.17024 3.16319 3.16046 3.21638 3.44868 3.58678 3.57597 3.61678 3.63073 3.7329 3.86083 3.861 3.70685 3.55583 3.55395 3.58846 3.65458 3.53341 3.48706 3.51087 3.5791 3.67877 3.8727 4.1545 4.33013 4.41223 4.55219 4.46217 4.17341 3.88739 3.78652 3.75044 3.858 3.9277 4.09818 3.86078 3.62712 3.52306 3.45804 3.3363 3.3112 3.85399
285.51 0.00025 4.4552 4.27451 4.05021 3.47988 3.42706 3.2522 3.06133 3.11612 3.13541 3.50913 3.59603 3.58184 3.65805 3.64669 3.41629 3.42889 3.35922 3.49253 3.50525 3.49195 3.41658 3.51239 3.53966 3.55784 3.64685 3.81643 3.91939 3.78444 3.68694 3.46112 3.40892 3.28535 3.20409 3.12147 3.1259 3.09422 3.0489 3.02736 3.08469 3.03878 2.9333 2.98343 3.03517 2.98062 2.91639 2.94148 2.99407 3.09785 3.10918 3.22577 3.29621 3.35941 3.42614 3.31088 3.26016 3.2527 3.25545 3.15232 3.17386 3.16114 3.15079 3.20499 3.41705 3.57796 3.56439 3.61103 3.62563 3.70893 3.85174 3.86778 3.72473 3.55616 3.53907 3.57109 3.64685 3.54397 3.49112 3.50786 3.57141 3.66746 3.85853 4.14173 4.326 4.40874 4.54356 4.4752 4.1978 3.90985 3.78765 3.74453 3.84961 3.92246 4.10914 3.89162 3.64864 3.52748 3.4568 3.33466 3.30988 3.84863
285.5125 0.00025 4.4907 4.28153 4.05361 3.47633 3.41913 3.27154 3.09541 3.11203 3.13715 3.48281 3.62494 3.60246 3.6447 3.72309 3.42976 3.4215 3.36543 3.47199 3.49474 3.51638 3.43677 3.53063 3.53524 3.55831 3.66352 3.82664 3.95608 3.78356 3.66888 3.47175 3.41409 3.2947 3.20553 3.13322 3.12665 3.08714 3.05468 3.02445 3.07942 3.04649 2.94229 2.98152 3.02394 2.98854 2.91799 2.93224 2.97843 3.07765 3.08856 3.20406 3.27609 3.34853 3.43245 3.31563 3.25895 3.25237 3.26089 3.15608 3.17711 3.15925 3.14112 3.19465 3.38564 3.56751 3.55273 3.60364 3.6217 3.68553 3.83978 3.87237 3.74259 3.55927 3.52479 3.55382 3.63692 3.55325 3.49599 3.50549 3.56418 3.65649 3.84451 4.12862 4.32111 4.4061 4.53414 4.48587 4.22138 3.93326 3.78992 3.73879 3.84104 3.91653 4.11848 3.92202 3.67115 3.53261 3.45575 3.33307 3.30856 3.84244
285.515 0.00025 4.5247 4.28435 4.05987 3.47112 3.40962 3.28879 3.13037 3.10135 3.14812 3.45749 3.62625 3.6328 3.62489 3.7961 3.44886 3.41787 3.37644 3.45449 3.48263 3.53305 3.45436 3.54925 3.52806 3.55933 3.67779 3.83013 3.98661 3.78355 3.65319 3.4827 3.42322 3.30299 3.20885 3.14447 3.12799 3.08071 3.06116 3.02265 3.07317 3.05126 2.95222 2.97971 3.01055 2.99615 2.92188 2.92363 2.96428 3.05698 3.06822 3.18191 3.25511 3.33517 3.43545 3.32132 3.25777 3.25191 3.26691 3.15992 3.18019 3.15799 3.13177 3.18498 3.35503 3.55602 3.54147 3.59441 3.61831 3.66287 3.82474 3.8743 3.76007 3.56501 3.5114 3.5367 3.62501 3.5608 3.50159 3.50378 3.55741 3.64586 3.83063 4.11497 4.31528 4.40417 4.52432 4.49429 4.24417 3.95749 3.79334 3.73312 3.83234 3.90998 4.12621 3.95186 3.69465 3.53842 3.45484 3.33152 3.30725 3.83571
285.5175 0.00025 4.56127 4.28099 4.06739 3.46539 3.39886 3.30294 3.16536 3.08696 3.16216 3.43764 3.60401 3.66685 3.60606 3.85031 3.47643 3.4209 3.38927 3.44096 3.47018 3.54182 3.47079 3.56473 3.5206 3.56084 3.68893 3.82654 4.00875 3.78591 3.64169 3.49391 3.43591 3.31028 3.21388 3.15502 3.12968 3.07569 3.06798 3.02199 3.06624 3.05318 2.96279 2.97822 2.99542 3.00227 2.92804 2.91565 2.95128 3.03643 3.0482 3.15998 3.2338 3.31968 3.43455 3.32741 3.25676 3.25152 3.27326 3.16402 3.1833 3.15706 3.1229 3.17579 3.32554 3.54287 3.53027 3.58339 3.61524 3.64178 3.80759 3.8736 3.77671 3.57342 3.49936 3.51993 3.6116 3.56637 3.50773 3.50279 3.55135 3.63564 3.81695 4.10094 4.30856 4.40282 4.51428 4.50033 4.26594 3.98235 3.798 3.72768 3.82356 3.90282 4.1323 3.98099 3.71911 3.54504 3.45411 3.33005 3.30605 3.82827
285.52 0.00025 4.60306 4.28089 4.07503 3.46296 3.38802 3.31395 3.19824 3.07339 3.17251 3.42401 3.56868 3.69524 3.59429 3.87703 3.51527 3.43222 3.40196 3.43156 3.45953 3.54173 3.48742 3.57578 3.51444 3.56274 3.69596 3.8164 4.02141 3.7915 3.63622 3.50546 3.4512 3.31727 3.2205 3.16506 3.13156 3.07259 3.07481 3.02229 3.05898 3.05293 2.97352 2.97696 2.97881 3.00595 2.93671 2.90867 2.93889 3.01647 3.0283 3.1384 3.21238 3.30248 3.42974 3.33357 3.25611 3.25137 3.27955 3.16819 3.18663 3.15687 3.1148 3.16685 3.29773 3.52827 3.51925 3.57104 3.61206 3.62258 3.78861 3.87025 3.79226 3.58414 3.48883 3.50347 3.59706 3.56986 3.51426 3.50248 3.5458 3.62572 3.80348 4.08648 4.3009 4.40193 4.50438 4.504 4.28663 4.00774 3.80392 3.72242 3.81473 3.89519 4.13685 4.00929 3.74446 3.55241 3.45354 3.32859 3.30488 3.82033
285.5225 0.00025 4.65094 4.28774 4.07898 3.46749 3.37871 3.32302 3.22714 3.06436 3.17554 3.41581 3.53056 3.71027 3.59258 3.87537 3.56482 3.45107 3.41391 3.42744 3.45297 3.53222 3.50376 3.58359 3.5103 3.56491 3.69707 3.80056 4.02395 3.80053 3.63834 3.51767 3.46788 3.32424 3.22822 3.17487 3.13344 3.07173 3.08152 3.02314 3.05118 3.05161 2.9838 2.97613 2.962 3.00665 2.94742 2.90272 2.9266 2.99727 3.00876 3.11752 3.19099 3.28393 3.42109 3.33922 3.25601 3.25119 3.28535 3.17254 3.19003 3.15714 3.10785 3.1579 3.2717 3.51219 3.50847 3.55769 3.60849 3.6052 3.76779 3.86428 3.80655 3.59691 3.47987 3.48743 3.58176 3.57121 3.52097 3.50281 3.54078 3.61615 3.7904 4.07175 4.29226 4.40125 4.4948 4.50534 4.30612 4.03348 3.81122 3.71742 3.80592 3.88708 4.13977 4.03654 3.77065 3.56065 3.45318 3.32721 3.30378 3.81195
285.525 0.00025 4.71142 4.30322 4.07928 3.48034 3.37119 3.33091 3.25034 3.06393 3.17107 3.41137 3.49403 3.7079 3.59849 3.84988 3.61857 3.47633 3.4254 3.42948 3.45207 3.51564 3.51821 3.58896 3.50886 3.56757 3.69112 3.78176 4.01624 3.81272 3.64939 3.53111 3.48509 3.3315 3.23648 3.1846 3.13549 3.07289 3.08787 3.02459 3.04276 3.05009 2.99326 2.97567 2.94556 3.00399 2.95977 2.89796 2.91424 2.97933 2.98947 3.09748 3.16964 3.26419 3.40914 3.34409 3.25674 3.25099 3.29039 3.17725 3.19353 3.15818 3.10198 3.14906 3.24767 3.49494 3.49796 3.54337 3.60409 3.58995 3.74579 3.85586 3.81934 3.61143 3.47294 3.47198 3.5659 3.57034 3.52758 3.50382 3.53645 3.60694 3.77759 4.05674 4.2827 4.40058 4.48588 4.50454 4.3242 4.05942 3.81986 3.71272 3.79716 3.87857 4.14116 4.06266 3.79759 3.56981 3.45311 3.32595 3.30289 3.80345
285.5275 0.00025 4.78618 4.33932 4.07789 3.49899 3.36349 3.33842 3.26845 3.07529 3.16166 3.40912 3.46073 3.69045 3.60548 3.81027 3.6649 3.50659 3.43784 3.43754 3.45683 3.49578 3.52775 3.59199 3.51046 3.57092 3.67724 3.76215 3.99835 3.82679 3.66955 3.54648 3.50195 3.33955 3.24536 3.1949 3.13802 3.07584 3.09361 3.02647 3.03371 3.04895 3.00152 2.97561 2.93011 2.99812 2.97343 2.895 2.90163 2.96256 2.9704 3.07835 3.14858 3.2439 3.3943 3.34742 3.25808 3.25052 3.29458 3.18234 3.19709 3.15987 3.09751 3.14027 3.2258 3.47668 3.48739 3.52822 3.59892 3.57712 3.72304 3.84532 3.83033 3.62711 3.46814 3.4573 3.54985 3.56744 3.5339 3.50553 3.53269 3.59806 3.76506 4.04154 4.2723 4.39974 4.47767 4.50172 4.3407 4.0854 3.82995 3.70836 3.78842 3.86972 4.14111 4.0876 3.82518 3.57991 3.45334 3.32483 3.30209 3.79477
285.53 0.00025 4.87934 4.37583 4.07874 3.51673 3.35288 3.34682 3.28255 3.09874 3.15175 3.40701 3.42997 3.66363 3.60681 3.76902 3.69304 3.54036 3.45435 3.44933 3.46547 3.47734 3.52985 3.59234 3.51512 3.57415 3.65575 3.74369 3.97161 3.84153 3.69818 3.56445 3.51822 3.34877 3.25476 3.20513 3.14143 3.0803 3.09865 3.0284 3.02394 3.04848 3.00854 2.97581 2.91654 2.98971 2.98736 2.89401 2.8891 2.94683 2.95186 3.06025 3.12769 3.22344 3.3771 3.34858 3.2598 3.24969 3.29803 3.18785 3.20049 3.16235 3.09428 3.13174 3.20618 3.45745 3.47694 3.51294 3.59266 3.56657 3.69965 3.8325 3.83948 3.64382 3.46562 3.44324 3.53383 3.56277 3.53971 3.50777 3.52951 3.58964 3.75292 4.02622 4.26109 4.39856 4.4703 4.49709 4.35563 4.11126 3.84145 3.70441 3.77975 3.86056 4.13969 4.11124 3.85333 3.59093 3.45394 3.32387 3.30146 3.78617
285.5325 0.00025 4.99223 4.39775 4.0844 3.52457 3.33612 3.35639 3.2939 3.13276 3.14482 3.40241 3.40024 3.63302 3.60069 3.73384 3.69737 3.5738 3.47818 3.46127 3.47607 3.4641 3.52385 3.58921 3.52295 3.57674 3.62812 3.72697 3.93865 3.85571 3.73374 3.58584 3.53329 3.35892 3.26488 3.2149 3.14634 3.08589 3.10295 3.03002 3.01381 3.04827 3.01475 2.97623 2.90542 2.97925 3.00088 2.895 2.87694 2.93161 2.9341 3.04325 3.10707 3.20305 3.35816 3.34765 3.26203 3.24851 3.30068 3.19373 3.20367 3.16565 3.09242 3.12402 3.18877 3.43755 3.46687 3.49766 3.58511 3.55831 3.676 3.81734 3.84674 3.66118 3.4655 3.43012 3.51805 3.5565 3.54476 3.51056 3.52697 3.58166 3.74114 4.01085 4.24908 4.39684 4.4639 4.49087 4.36882 4.13689 3.8543 3.70086 3.77115 3.85114 4.13693 4.13347 3.88188 3.60284 3.45485 3.32306 3.30104 3.77768
285.535 0.00025 5.12104 4.40504 4.09882 3.51793 3.31407 3.36646 3.30413 3.17224 3.14308 3.39298 3.37052 3.6001 3.58829 3.70338 3.68099 3.60062 3.50995 3.4693 3.48677 3.45857 3.51187 3.58114 3.53255 3.57806 3.59616 3.71108 3.90257 3.86821 3.77349 3.6109 3.54738 3.37026 3.27652 3.22393 3.15296 3.09229 3.10654 3.03089 3.00409 3.04741 3.02042 2.97678 2.8974 2.96753 3.01318 2.89742 2.86525 2.91701 2.91758 3.02692 3.08636 3.18267 3.33806 3.34457 3.26431 3.24674 3.30233 3.19991 3.20684 3.16972 3.09178 3.11716 3.17379 3.41719 3.45667 3.48269 3.57645 3.5522 3.65267 3.79993 3.85213 3.67863 3.46782 3.41801 3.50251 3.54877 3.54895 3.51387 3.525 3.57409 3.72964 3.99545 4.23635 4.3944 4.45847 4.48355 4.38017 4.16204 3.86851 3.69785 3.76269 3.8415 4.13287 4.15414 3.9108 3.61578 3.45616 3.32248 3.30091 3.76943
285.5375 0.00025 5.25942 4.39193 4.11905 3.49735 3.28978 3.37397 3.31488 3.21087 3.14655 3.37765 3.34163 3.56537 3.57253 3.6724 3.65244 3.61391 3.54723 3.47242 3.49657 3.46139 3.49765 3.56767 3.54129 3.57762 3.56215 3.69547 3.86631 3.87917 3.81426 3.63946 3.56058 3.38256 3.29034 3.23176 3.16137 3.09913 3.10963 3.03053 2.99554 3.04505 3.02595 2.97742 2.89279 2.95556 3.02332 2.90092 2.85447 2.90283 2.90242 3.01116 3.06589 3.16288 3.3173 3.33921 3.26626 3.24442 3.30292 3.20647 3.21018 3.17456 3.09252 3.1115 3.16089 3.39641 3.44669 3.46823 3.56672 3.54796 3.6303 3.78047 3.85588 3.6962 3.47246 3.40717 3.48755 3.53988 3.55207 3.51758 3.52361 3.56707 3.71847 3.97992 4.22285 4.39113 4.45391 4.47524 4.38956 4.18658 3.88404 3.69535 3.75432 3.8317 4.1276 4.17317 3.93993 3.62975 3.45793 3.32211 3.30093 3.76152
285.54 0.00025 5.39488 4.36245 4.13292 3.46789 3.26761 3.37543 3.3256 3.24323 3.15443 3.35737 3.31537 3.53147 3.55631 3.63661 3.62073 3.60952 3.58467 3.47295 3.50475 3.47199 3.48442 3.54981 3.54663 3.57617 3.52872 3.67995 3.83266 3.8888 3.85341 3.67075 3.5736 3.39568 3.30667 3.23879 3.17164 3.10624 3.11246 3.02873 2.98844 3.04047 3.03146 2.97827 2.89186 2.94414 3.03056 2.90519 2.84483 2.88891 2.88851 2.99564 3.04563 3.14345 3.29633 3.33214 3.2679 3.24161 3.3027 3.21306 3.21346 3.17991 3.09453 3.10727 3.15004 3.3756 3.43674 3.45448 3.55615 3.54507 3.60927 3.7591 3.85774 3.71347 3.47955 3.39774 3.47322 3.53 3.55391 3.52152 3.52281 3.56054 3.7075 3.9644 4.20884 4.38692 4.45009 4.46629 4.39702 4.21041 3.90089 3.69353 3.74617 3.82179 4.12124 4.19052 3.96913 3.64474 3.46014 3.32194 3.30122 3.75436
285.5425 0.00025 5.51017 4.33249 4.13596 3.43512 3.25014 3.36966 3.33521 3.26712 3.1672 3.33581 3.29154 3.50008 3.54054 3.59629 3.59086 3.58815 3.61536 3.4762 3.51016 3.48863 3.47488 3.52875 3.54698 3.57437 3.49762 3.66398 3.80345 3.89708 3.88892 3.70321 3.58702 3.40953 3.32584 3.24536 3.18335 3.11358 3.1151 3.02547 2.98318 3.03351 3.03665 2.97953 2.89441 2.93431 3.03443 2.91006 2.83707 2.87547 2.87619 2.98025 3.02581 3.12449 3.27527 3.32364 3.26854 3.23819 3.30169 3.21975 3.21669 3.1858 3.09744 3.10454 3.14118 3.35475 3.4268 3.44118 3.54473 3.54328 3.59016 3.73615 3.8574 3.7302 3.4889 3.39006 3.45957 3.51938 3.5545 3.52555 3.5225 3.55452 3.69681 3.94897 4.19436 4.38162 4.4468 4.45701 4.40253 4.23325 3.91898 3.69242 3.73817 3.81179 4.11383 4.2062 3.99833 3.66079 3.46285 3.32198 3.3018 3.74802
285.545 0.00025 5.60996 4.28705 4.12503 3.40273 3.23705 3.35745 3.34096 3.28305 3.18355 3.31707 3.26768 3.47186 3.52388 3.55476 3.5632 3.55471 3.63252 3.48627 3.51236 3.50749 3.47095 3.50716 3.54211 3.57225 3.4708 3.64774 3.7808 3.90299 3.91942 3.73488 3.6015 3.4241 3.34759 3.25241 3.19616 3.12093 3.11729 3.02131 2.97977 3.02459 3.04097 2.98151 2.89985 2.92688 3.03458 2.91531 2.83102 2.86215 2.86521 2.96493 3.00672 3.10604 3.25464 3.31422 3.26781 3.2343 3.29989 3.22661 3.22 3.19233 3.1012 3.10327 3.13419 3.33426 3.41697 3.42886 3.53296 3.54191 3.57315 3.71208 3.85462 3.7466 3.50046 3.38404 3.44656 3.50822 3.55382 3.52951 3.52268 3.54907 3.68649 3.93361 4.17947 4.37523 4.444 4.44759 4.40593 4.25494 3.93821 3.69209 3.73039 3.8017 4.1055 4.22021 4.02745 3.67791 3.46605 3.32224 3.30257 3.74232
285.5475 0.00025 5.68115 4.24987 4.09974 3.37514 3.2274 3.34103 3.34035 3.29196 3.20158 3.30647 3.23927 3.44576 3.50469 3.51613 3.5367 3.51644 3.63212 3.50294 3.5122 3.52442 3.47366 3.48769 3.53319 3.56896 3.44981 3.63096 3.76548 3.90535 3.94431 3.7643 3.61703 3.43972 3.37117 3.26113 3.20978 3.12873 3.11882 3.01667 2.97786 3.01424 3.04385 2.98437 2.90745 2.92239 3.03066 2.92062 2.82678 2.84926 2.85558 2.94967 2.98847 3.08839 3.23451 3.30433 3.2657 3.23036 3.29733 3.23336 3.22321 3.1995 3.1059 3.10344 3.12872 3.31412 3.4073 3.41729 3.52089 3.54057 3.55835 3.6876 3.84901 3.76241 3.51393 3.38006 3.43446 3.49668 3.55193 3.53324 3.52338 3.54418 3.67648 3.9184 4.16429 4.36764 4.44141 4.43832 4.40745 4.27536 3.95854 3.69258 3.72281 3.79155 4.09628 4.23245 4.05621 3.69597 3.46982 3.3228 3.30361 3.73749
285.55 0.00025 5.73805 4.20923 4.06183 3.35577 3.2208 3.32136 3.33311 3.29605 3.21812 3.30523 3.20374 3.41865 3.48205 3.48324 3.51069 3.47868 3.61466 3.52329 3.51231 3.53627 3.48215 3.47248 3.52098 3.56374 3.43574 3.61401 3.75804 3.90221 3.96339 3.79084 3.63292 3.45678 3.39588 3.27258 3.22396 3.13711 3.11957 3.01221 2.97726 3.00294 3.04438 2.9881 2.9167 2.92131 3.02299 2.92563 2.82403 2.8371 2.8474 2.93459 2.97119 3.07137 3.21479 3.29422 3.26198 3.22637 3.29409 3.24014 3.22619 3.20708 3.11142 3.10499 3.12468 3.2946 3.39755 3.40647 3.50886 3.5389 3.5459 3.6633 3.84025 3.77776 3.5293 3.37829 3.42315 3.48502 3.54893 3.53659 3.52453 3.53987 3.66687 3.90332 4.14882 4.359 4.43907 4.42947 4.40713 4.29429 3.9798 3.69396 3.71549 3.7814 4.08627 4.24296 4.08452 3.71499 3.47419 3.32357 3.30487 3.73342
285.5525 0.00025 5.76237 4.18365 4.01997 3.34778 3.21752 3.29983 3.32188 3.29605 3.23083 3.31277 3.16505 3.38702 3.4557 3.45669 3.48471 3.44494 3.5848 3.54235 3.51671 3.54144 3.49405 3.46285 3.50683 3.55579 3.43024 3.59854 3.75768 3.89189 3.97638 3.81474 3.64843 3.47582 3.4209 3.28745 3.23863 3.14629 3.11942 3.00833 2.97771 2.99156 3.04191 2.99221 2.92747 2.92356 3.01172 2.93023 2.82284 2.82549 2.84018 2.91976 2.95495 3.05524 3.19566 3.28421 3.25682 3.22242 3.29009 3.2468 3.22911 3.21514 3.11757 3.10774 3.12218 3.27591 3.38761 3.39654 3.4973 3.53697 3.53577 3.63961 3.82853 3.79257 3.54621 3.37892 3.41273 3.47321 3.54482 3.53944 3.5261 3.53616 3.65773 3.88843 4.133 4.34908 4.43664 4.42111 4.40499 4.31146 4.00189 3.69626 3.70842 3.77128 4.07553 4.25167 4.1122 3.73492 3.47916 3.32459 3.30631 3.73036
285.555 0.00025 5.75737 4.16099 3.98152 3.35061 3.21503 3.27963 3.30943 3.29229 3.23904 3.32737 3.13225 3.34869 3.42602 3.4364 3.45837 3.41593 3.5487 3.55487 3.52835 3.54039 3.5065 3.45881 3.49272 3.54447 3.43332 3.58656 3.76221 3.87565 3.98261 3.83658 3.66262 3.49699 3.44547 3.30644 3.25421 3.15645 3.11829 3.00513 2.97884 2.98116 3.03631 2.99611 2.93911 2.92907 2.9977 2.93363 2.82322 2.81484 2.83368 2.90539 2.9397 3.04005 3.17745 3.27404 3.25012 3.21826 3.28514 3.25306 3.23147 3.22356 3.12433 3.11152 3.12082 3.25822 3.37751 3.38743 3.48607 3.53424 3.52793 3.6168 3.81382 3.80656 3.56443 3.38205 3.4033 3.46152 3.53969 3.54166 3.528 3.53291 3.64899 3.87378 4.11703 4.3382 4.43423 4.41338 4.40136 4.32689 4.02472 3.69958 3.70159 3.76116 4.06414 4.25867 4.13922 3.7558 3.48479 3.32586 3.30797 3.72817
285.5575 0.00025 5.72756 4.14247 3.95107 3.3626 3.20866 3.26368 3.29803 3.28669 3.24224 3.34659 3.11369 3.30489 3.39213 3.42135 3.43188 3.39201 3.51119 3.55795 3.54802 3.53568 3.5166 3.4589 3.48017 3.52976 3.44462 3.5809 3.76907 3.8553 3.98139 3.85739 3.67493 3.52039 3.46948 3.32919 3.27143 3.16772 3.11633 3.00282 2.98035 2.97242 3.02793 2.99932 2.95124 2.93728 2.9819 2.93533 2.82511 2.80541 2.82765 2.89157 2.92557 3.0261 3.16018 3.26376 3.24203 3.21408 3.27968 3.25893 3.23342 3.23201 3.13159 3.11641 3.12071 3.24167 3.36689 3.37903 3.47558 3.53079 3.52245 3.59556 3.7968 3.81933 3.58354 3.38768 3.39474 3.4502 3.53373 3.54319 3.53021 3.53029 3.64069 3.85929 4.10084 4.32612 4.43146 4.40614 4.39626 4.34036 4.04813 3.70398 3.69508 3.75111 4.05222 4.264 4.16544 3.77758 3.49111 3.32733 3.30971 3.72674
285.56 0.00025 5.66755 4.13224 3.93569 3.38087 3.1992 3.25168 3.28963 3.28194 3.2399 3.36669 3.11253 3.26106 3.35362 3.40933 3.4052 3.373 3.47439 3.5511 3.57418 3.53108 3.52227 3.46118 3.47011 3.51264 3.46322 3.58399 3.77633 3.83464 3.97274 3.87765 3.68632 3.54555 3.49307 3.35517 3.29041 3.18013 3.11371 3.00173 2.9821 2.96561 3.01757 3.00139 2.96363 2.94757 2.9655 2.93516 2.82835 2.79722 2.82178 2.87848 2.91228 3.01334 3.14396 3.25329 3.23283 3.2098 3.27377 3.26461 3.23537 3.24022 3.13912 3.12233 3.12174 3.22662 3.35598 3.37139 3.46568 3.52636 3.51884 3.57614 3.77798 3.83066 3.60329 3.39623 3.38727 3.43917 3.52683 3.54386 3.5326 3.52819 3.6329 3.84513 4.08465 4.3131 4.42832 4.39947 4.39003 4.35182 4.07195 3.70954 3.68893 3.74111 4.03975 4.26764 4.19069 3.80016 3.49817 3.32907 3.31154 3.72607
285.5625 0.00025 5.59375 4.12759 3.93556 3.40161 3.19093 3.24078 3.28271 3.27807 3.23161 3.38419 3.12706 3.22321 3.31162 3.39748 3.37866 3.35739 3.43906 3.53557 3.60343 3.52952 3.5236 3.46371 3.46277 3.49592 3.48736 3.59613 3.7822 3.81677 3.95737 3.89615 3.6982 3.5717 3.51654 3.38336 3.31121 3.19356 3.1105 3.00216 2.98427 2.96086 3.00586 3.0019 2.97582 2.95956 2.94954 2.93285 2.83267 2.79054 2.81587 2.86598 2.8998 3.00192 3.12913 3.24235 3.22257 3.20519 3.26774 3.26991 3.23696 3.24791 3.14688 3.12942 3.1237 3.21315 3.34442 3.36459 3.45664 3.52111 3.51681 3.55853 3.75768 3.84003 3.62362 3.4075 3.38092 3.42868 3.51929 3.54377 3.53507 3.52654 3.62561 3.83127 4.06828 4.29911 4.42469 4.39341 4.38288 4.3612 4.09601 3.71631 3.68311 3.73121 4.02685 4.26964 4.21487 3.82341 3.50601 3.33107 3.31343 3.7259
285.565 0.00025 5.51544 4.12502 3.94708 3.41879 3.19018 3.22939 3.27711 3.27313 3.22026 3.39484 3.15316 3.19418 3.27068 3.3823 3.35287 3.34416 3.40515 3.513 3.63238 3.53315 3.52199 3.46415 3.45828 3.48232 3.51509 3.61677 3.78647 3.80388 3.93697 3.91132 3.71234 3.598 3.54044 3.4128 3.33398 3.20821 3.10698 3.00415 2.9867 2.95803 2.99356 3.00074 2.98739 2.97269 2.93494 2.92846 2.83798 2.78584 2.80977 2.85383 2.88805 2.99205 3.11572 3.23115 3.21171 3.20028 3.26173 3.27476 3.23818 3.25471 3.15474 3.13772 3.12686 3.20127 3.33193 3.35825 3.44853 3.51539 3.51639 3.54343 3.73652 3.8473 3.64388 3.42128 3.37594 3.41895 3.51116 3.54285 3.53753 3.52538 3.61883 3.81777 4.05183 4.28424 4.4205 4.3879 4.37512 4.36844 4.12012 3.72431 3.67764 3.72138 4.01364 4.27017 4.23791 3.8473 3.51461 3.33333 3.31535 3.72639
285.5675 0.00025 5.431 4.13446 3.96592 3.4293 3.20023 3.2161 3.27127 3.26327 3.21028 3.39426 3.18703 3.17407 3.23632 3.36202 3.32836 3.3323 3.37353 3.48478 3.65706 3.5423 3.52072 3.46141 3.45708 3.47385 3.54547 3.64405 3.78922 3.7964 3.91419 3.92097 3.72987 3.62406 3.56497 3.44257 3.35847 3.22387 3.10346 3.00795 2.98955 2.95696 2.98102 2.99796 2.99778 2.9868 2.92254 2.92226 2.8439 2.78317 2.80344 2.84211 2.87693 2.98365 3.10381 3.21948 3.20036 3.19496 3.25581 3.27905 3.23875 3.26056 3.16272 3.14715 3.13072 3.19119 3.31891 3.35276 3.4411 3.50892 3.51688 3.53088 3.71449 3.85223 3.66414 3.43789 3.37254 3.41 3.50259 3.54098 3.5398 3.52472 3.61263 3.80469 4.0353 4.26855 4.41562 4.38282 4.36695 4.37352 4.14393 3.73351 3.67256 3.71163 4.0001 4.26917 4.25969 3.87175 3.52403 3.33589 3.31732 3.72739
285.57 0.00025 5.36159 4.16266 3.98771 3.43401 3.22012 3.20068 3.26407 3.24638 3.20585 3.38001 3.22424 3.16079 3.21057 3.33727 3.30548 3.32192 3.34603 3.45266 3.67477 3.5564 3.52197 3.45551 3.45896 3.47118 3.57778 3.67613 3.79087 3.7941 3.89171 3.92373 3.75075 3.64942 3.59041 3.47192 3.3846 3.24018 3.10058 3.01345 2.99263 2.95727 2.96866 2.99384 3.00668 3.00131 2.91282 2.91464 2.85 2.78265 2.79708 2.83066 2.8663 2.9768 3.09347 3.20758 3.18876 3.18913 3.25001 3.28301 3.23871 3.26516 3.17077 3.15765 3.13532 3.18313 3.30513 3.3476 3.43452 3.50209 3.51783 3.52137 3.69147 3.85488 3.684 3.45688 3.37086 3.40185 3.49367 3.53827 3.54185 3.5245 3.60693 3.79204 4.01887 4.2523 4.40998 4.37812 4.35863 4.37642 4.16725 3.744 3.66791 3.70203 3.98631 4.26674 4.28012 3.89665 3.53433 3.33878 3.3193 3.7287
285.5725 0.00025 5.29922 4.21014 4.00374 3.43733 3.24695 3.18364 3.25492 3.22372 3.20684 3.3537 3.26007 3.15257 3.19236 3.31133 3.2849 3.31264 3.32457 3.41745 3.6836 3.57338 3.52754 3.44812 3.46349 3.4742 3.61148 3.71114 3.79241 3.7957 3.87172 3.91962 3.77393 3.67452 3.61645 3.49975 3.41193 3.25665 3.09846 3.02038 2.99603 2.95862 2.95734 2.98892 3.01372 3.01571 2.90614 2.90648 2.85606 2.78431 2.79062 2.81924 2.85626 2.97182 3.08456 3.19553 3.17703 3.18285 3.2445 3.28654 3.2382 3.26845 3.17888 3.16917 3.14074 3.177 3.29101 3.34278 3.42863 3.49528 3.51907 3.51519 3.66773 3.85531 3.70337 3.47815 3.37099 3.39449 3.48442 3.53475 3.54356 3.52459 3.60165 3.77983 4.00246 4.23545 4.40338 4.37367 4.35037 4.37718 4.18981 3.7558 3.66371 3.69255 3.97232 4.26295 4.29912 3.92197 3.54558 3.34201 3.32114 3.73012
285.575 0.00025 5.25894 4.27585 4.0111 3.44659 3.27727 3.16815 3.24279 3.19942 3.21095 3.32184 3.28932 3.14946 3.17793 3.28633 3.26703 3.30439 3.31025 3.38006 3.68279 3.5905 3.53844 3.44229 3.46937 3.48222 3.64556 3.74805 3.79465 3.80027 3.85541 3.91108 3.79715 3.70019 3.64271 3.52551 3.44002 3.27306 3.09785 3.02884 2.99983 2.96017 2.94752 2.98324 3.01902 3.0296 2.90248 2.89847 2.86155 2.78805 2.78445 2.80802 2.84678 2.96845 3.07683 3.1832 3.16527 3.17599 3.23949 3.28969 3.2372 3.27015 3.18699 3.18154 3.14672 3.173 3.27676 3.338 3.42337 3.48858 3.5201 3.51243 3.64369 3.85365 3.7217 3.50136 3.37338 3.38813 3.47508 3.53037 3.54491 3.52512 3.5969 3.76813 3.98609 4.21812 4.39596 4.36954 4.34221 4.376 4.21144 3.76887 3.66001 3.68318 3.9582 4.25793 4.31666 3.94752 3.55774 3.34554 3.32288 3.73172
285.5775 0.00025 5.22522 4.34853 4.00592 3.46243 3.30797 3.15903 3.22623 3.17748 3.21534 3.29088 3.30886 3.15168 3.16534 3.26419 3.25193 3.29679 3.30296 3.34175 3.67292 3.60512 3.5546 3.44149 3.4749 3.49419 3.67805 3.78716 3.7986 3.80745 3.84249 3.90083 3.81751 3.72652 3.66846 3.5488 3.46871 3.28965 3.09895 3.0381 3.00371 2.96125 2.9394 2.9773 3.02266 3.04248 2.90179 2.89136 2.86643 2.79338 2.77888 2.79711 2.8377 2.96666 3.07042 3.17094 3.1536 3.16872 3.23504 3.29227 3.23564 3.2704 3.19488 3.19448 3.15348 3.17106 3.26243 3.33318 3.4189 3.48216 3.52045 3.51295 3.61991 3.84993 3.73885 3.52607 3.37824 3.38266 3.46563 3.52509 3.54587 3.526 3.59263 3.75696 3.96985 4.20051 4.38754 4.36556 4.33421 4.37278 4.23181 3.78324 3.6569 3.67397 3.94395 4.25173 4.33269 3.9732 3.57079 3.34937 3.32462 3.73348
285.58 0.00025 5.20306 4.42254 3.99362 3.48218 3.33617 3.16029 3.20423 3.16101 3.21842 3.2654 3.31765 3.15963 3.15409 3.24546 3.23834 3.28954 3.30106 3.30415 3.65437 3.61484 3.57483 3.44894 3.4801 3.50856 3.70635 3.82886 3.80555 3.81744 3.83217 3.89203 3.83262 3.75407 3.6932 3.56901 3.4975 3.30687 3.10208 3.04788 3.00826 2.96173 2.93302 2.97128 3.02449 3.05364 2.90372 2.88591 2.87073 2.80018 2.77413 2.78647 2.82917 2.96627 3.06522 3.1588 3.14205 3.16105 3.23128 3.29406 3.23366 3.26927 3.2026 3.20792 3.16107 3.17102 3.2486 3.32815 3.41519 3.47608 3.51979 3.51636 3.59681 3.84375 3.75492 3.55197 3.38559 3.37811 3.45638 3.51908 3.54635 3.52711 3.58875 3.74629 3.95376 4.18254 4.378 4.36182 4.32661 4.36798 4.25089 3.79889 3.65437 3.66488 3.92958 4.24437 4.34708 3.99881 3.58481 3.35364 3.32632 3.73514
285.5825 0.00025 5.18453 4.48147 3.98001 3.499 3.36101 3.17247 3.17588 3.15146 3.22069 3.24822 3.31672 3.17251 3.14544 3.23035 3.22487 3.28249 3.30212 3.27047 3.62772 3.61782 3.59683 3.46627 3.48668 3.5236 3.72893 3.87382 3.81674 3.82977 3.82366 3.88698 3.84131 3.7823 3.71598 3.58603 3.52602 3.32527 3.10727 3.05763 3.0132 2.9614 2.92818 2.966 3.02491 3.06276 2.90768 2.8825 2.87444 2.80769 2.77043 2.77616 2.82131 2.96707 3.06106 3.14681 3.13079 3.15331 3.22819 3.29504 3.23135 3.26665 3.20985 3.22143 3.16951 3.17296 3.23575 3.32271 3.41201 3.47059 3.51821 3.5224 3.57585 3.83494 3.76974 3.57862 3.39561 3.37458 3.44726 3.5122 3.54622 3.52842 3.58533 3.73624 3.93789 4.16442 4.36742 4.35812 4.31923 4.36161 4.26836 3.81574 3.65247 3.65597 3.91516 4.23605 4.35991 4.02431 3.59978 3.35835 3.32793 3.7366
285.585 0.00025 5.16742 4.52869 3.96769 3.508 3.38271 3.1913 3.1422 3.14897 3.22305 3.23976 3.30876 3.18837 3.14004 3.21876 3.21033 3.27476 3.30347 3.24345 3.59348 3.61332 3.61778 3.49276 3.49723 3.53692 3.74508 3.92158 3.8334 3.8438 3.81683 3.88613 3.8435 3.80992 3.73681 3.60009 3.55354 3.34557 3.11495 3.06683 3.01878 2.96066 2.92434 2.96164 3.02402 3.06921 2.91266 2.88142 2.87761 2.81551 2.7679 2.76614 2.81412 2.96853 3.05795 3.13525 3.11987 3.14549 3.2254 3.29516 3.22905 3.26288 3.21659 3.23477 3.17906 3.17657 3.22426 3.31667 3.4091 3.46552 3.51564 3.53037 3.55793 3.82324 3.78331 3.6055 3.40859 3.37204 3.43846 3.50459 3.54534 3.52986 3.58227 3.72673 3.92233 4.14615 4.35564 4.35436 4.31219 4.35402 4.28408 3.83376 3.65128 3.64722 3.9007 4.2268 4.37126 4.0496 3.61567 3.36349 3.32953 3.73791
285.5875 0.00025 5.15008 4.55782 3.95855 3.50641 3.40132 3.2117 3.10583 3.15213 3.22774 3.23806 3.29755 3.20621 3.1385 3.21067 3.19473 3.26492 3.30214 3.22419 3.55295 3.60165 3.63503 3.52548 3.51429 3.54751 3.75487 3.96833 3.85674 3.85858 3.81263 3.88892 3.84048 3.83511 3.75597 3.6116 3.57933 3.36796 3.1255 3.07504 3.02505 2.95947 2.92144 2.9584 3.02191 3.07314 2.91817 2.88289 2.8806 2.82351 2.76661 2.75673 2.80801 2.97023 3.05597 3.12404 3.10945 3.13788 3.22283 3.29456 3.22708 3.25812 3.22247 3.24754 3.18975 3.1816 3.21463 3.31007 3.40663 3.4612 3.51225 3.5395 3.54367 3.80834 3.79561 3.63217 3.42457 3.37062 3.43006 3.49627 3.54375 3.53138 3.57965 3.71775 3.90708 4.12793 4.34293 4.35074 4.30544 4.34533 4.29782 3.85278 3.65081 3.63862 3.88621 4.21666 4.38101 4.07458 3.63251 3.36912 3.33109 3.73887
285.59 0.00025 5.13019 4.56438 3.95503 3.49815 3.41991 3.23086 3.07209 3.15745 3.23761 3.23878 3.28627 3.22559 3.14118 3.20644 3.17833 3.25179 3.29725 3.21253 3.50794 3.58378 3.64714 3.56073 3.53893 3.55674 3.75929 4.00914 3.88856 3.87338 3.81113 3.89322 3.83484 3.85613 3.77395 3.62113 3.6024 3.39271 3.13909 3.08185 3.03195 2.95809 2.91924 2.95623 3.01883 3.07462 2.92345 2.88667 2.88359 2.83142 2.76654 2.74801 2.80293 2.97199 3.05513 3.11339 3.0996 3.13064 3.22023 3.29316 3.22545 3.25245 3.22707 3.25951 3.20166 3.18787 3.20727 3.30269 3.40452 3.45758 3.50805 3.54929 3.53374 3.79075 3.80707 3.65804 3.44321 3.37043 3.42218 3.48737 3.54138 3.53302 3.57745 3.70933 3.89225 4.1098 4.32915 4.34692 4.29899 4.33583 4.30945 3.8726 3.65114 3.63022 3.87171 4.20574 4.38907 4.09897 3.65022 3.37529 3.33263 3.73946
285.5925 0.00025 5.10643 4.55787 3.96024 3.48648 3.43881 3.24994 3.04778 3.1605 3.2537 3.23903 3.27733 3.24607 3.14862 3.20602 3.1619 3.23539 3.28941 3.20683 3.46067 3.561 3.65357 3.59552 3.57063 3.5682 3.76009 4.03964 3.92923 3.88868 3.81201 3.89696 3.82913 3.87106 3.79135 3.62924 3.62208 3.41978 3.15533 3.08699 3.03958 2.95663 2.91756 2.95493 3.01504 3.0738 2.92761 2.89224 2.88653 2.83876 2.76753 2.74004 2.79877 2.97331 3.05541 3.1035 3.09039 3.12388 3.21735 3.29122 3.22441 3.24615 3.23041 3.27076 3.21492 3.19502 3.20263 3.29473 3.40253 3.45464 3.50368 3.559 3.52802 3.77077 3.8172 3.6828 3.4647 3.37166 3.41485 3.47797 3.5381 3.53455 3.57564 3.70147 3.87785 4.09168 4.31431 4.34287 4.29282 4.32569 4.31884 3.89321 3.65233 3.62206 3.8572 4.19416 4.39561 4.12274 3.66882 3.38204 3.33426 3.73991