285.5025 0.00025 0.473831 0.444171 0.390698 0.339865 0.32085 0.310222 0.305251 0.303561 0.304079 0.305996 0.297523 0.294511 0.296371 0.30248 0.306996 0.312899 0.318649 0.319641 0.316687 0.313858 0.310595 0.307323 0.303803 0.30359 0.308011 0.312957 0.318457 0.319794 0.320913 0.325955 0.328707 0.329574 0.331355 0.338411 0.342517 0.344165 0.343576 0.338018 0.339013 0.341199 0.342341 0.345739 0.348689 0.3527 0.359471 0.365008 0.370021 0.373645 0.37614 0.378812 0.382691 0.386864 0.389772 0.390851 0.392584 0.393933 0.397665 0.399128 0.398395 0.400614 0.40159 0.402233 0.401797 0.404561 0.407843 0.409944 0.412488 0.41489 0.41732 0.41933 0.420901 0.422678 0.423414 0.423896 0.424857 0.425368 0.426297 0.428046 0.429537 0.430619 0.43174 0.433303 0.435333 0.436678 0.438342 0.439983 0.4406 0.441693 0.442372 0.442974 0.44318 0.443943 0.444507 0.446499 0.44729 0.448777 0.449667 0.452457 0.454246 0.458637
285.505 0.00025 0.405833 0.376206 0.323324 0.272291 0.252679 0.242425 0.237254 0.236009 0.237659 0.238881 0.229363 0.226708 0.227903 0.233652 0.237768 0.243674 0.249418 0.2499 0.24676 0.244153 0.24103 0.23772 0.234096 0.234232 0.238296 0.24262 0.248227 0.249642 0.250887 0.256575 0.259372 0.260491 0.262443 0.269661 0.27339 0.27497 0.274611 0.26886 0.269557 0.272013 0.273407 0.276501 0.279449 0.283558 0.289993 0.295725 0.300855 0.304442 0.30703 0.309558 0.313432 0.317689 0.320628 0.321822 0.323512 0.324942 0.328711 0.33018 0.329574 0.331921 0.332839 0.333541 0.333073 0.335714 0.339104 0.341242 0.343881 0.346324 0.348728 0.350683 0.352265 0.354129 0.354895 0.355366 0.356297 0.356811 0.357747 0.35949 0.360998 0.362093 0.363253 0.364761 0.366768 0.368128 0.369785 0.371403 0.372031 0.373148 0.373859 0.374485 0.374681 0.375413 0.375958 0.377941 0.378745 0.380264 0.381146 0.383948 0.385728 0.390098
285.5075 0.00025 0.200388 0.170799 0.11762 0.0662773 0.0454895 0.034799 0.029701 0.0283278 0.0313952 0.0319089 0.0218936 0.0204451 0.0214184 0.02736 0.0314985 0.0372917 0.0431886 0.0432849 0.0399396 0.0376616 0.034726 0.0313485 0.0275522 0.0280701 0.0322256 0.0357952 0.0413027 0.0426336 0.0440811 0.049448 0.0521186 0.0531906 0.0552362 0.0623976 0.0661512 0.0679858 0.0679105 0.0620718 0.062783 0.0651915 0.0668038 0.069472 0.0723834 0.0766672 0.0827427 0.0883518 0.0933546 0.0967522 0.0991335 0.101362 0.105274 0.10955 0.112417 0.113517 0.114996 0.11624 0.120062 0.121654 0.12106 0.12323 0.12403 0.124759 0.124297 0.126819 0.130263 0.132382 0.135066 0.137589 0.139977 0.14189 0.143456 0.145404 0.14621 0.146675 0.147568 0.148081 0.149013 0.150725 0.152233 0.153333 0.154529 0.156043 0.158019 0.159389 0.161051 0.162636 0.163269 0.164398 0.165109 0.165736 0.165928 0.166647 0.167185 0.169162 0.169992 0.171531 0.172386 0.175193 0.176984 0.181344
285.51 0.00025 -0.0731412 -0.102398 -0.155375 -0.206619 -0.227434 -0.238604 -0.243525 -0.245046 -0.240495 -0.240618 -0.250645 -0.251603 -0.250802 -0.244778 -0.240293 -0.234506 -0.228553 -0.228784 -0.232399 -0.234485 -0.236976 -0.239975 -0.243702 -0.242634 -0.238371 -0.23542 -0.229991 -0.228505 -0.226789 -0.221312 -0.218461 -0.217263 -0.214995 -0.207751 -0.204086 -0.202147 -0.202047 -0.207846 -0.20717 -0.204848 -0.202851 -0.200276 -0.197297 -0.192853 -0.18699 -0.181138 -0.176281 -0.172957 -0.170291 -0.168318 -0.164306 -0.159983 -0.157117 -0.155939 -0.154614 -0.153405 -0.149533 -0.147869 -0.148395 -0.146064 -0.145333 -0.144478 -0.144886 -0.142502 -0.139005 -0.136842 -0.134144 -0.131597 -0.129191 -0.127288 -0.125702 -0.123661 -0.122825 -0.122377 -0.1215 -0.121012 -0.120069 -0.118362 -0.116801 -0.11569 -0.114488 -0.113002 -0.111082 -0.1097 -0.108052 -0.106498 -0.105856 -0.104699 -0.103973 -0.103319 -0.103112 -0.102423 -0.101913 -0.0999471 -0.0990973 -0.0975457 -0.0967002 -0.093909 -0.0921151 -0.0877531
285.5125 0.00025 -0.179381 -0.208668 -0.261267 -0.312368 -0.333459 -0.344321 -0.349022 -0.350935 -0.34528 -0.34611 -0.35708 -0.357253 -0.35642 -0.350567 -0.346179 -0.340755 -0.334865 -0.335394 -0.339237 -0.341368 -0.343684 -0.346571 -0.35056 -0.349089 -0.344777 -0.342382 -0.337052 -0.335518 -0.33392 -0.328769 -0.325975 -0.324369 -0.322032 -0.314661 -0.310943 -0.3089 -0.308612 -0.314293 -0.313661 -0.311396 -0.309241 -0.306862 -0.303951 -0.299614 -0.294034 -0.288227 -0.283271 -0.280037 -0.277492 -0.275848 -0.271704 -0.267377 -0.264568 -0.263422 -0.262211 -0.261074 -0.257074 -0.255417 -0.255915 -0.253659 -0.253099 -0.252206 -0.252525 -0.250257 -0.246675 -0.244511 -0.2418 -0.239137 -0.236738 -0.234876 -0.233365 -0.231259 -0.230419 -0.229984 -0.229162 -0.228678 -0.227732 -0.226014 -0.224423 -0.223324 -0.222105 -0.220646 -0.21876 -0.217349 -0.215715 -0.21421 -0.213553 -0.212372 -0.211626 -0.21095 -0.210753 -0.210075 -0.209583 -0.207643 -0.206776 -0.205203 -0.204345 -0.20156 -0.199768 -0.195412
285.515 0.00025 -0.38096 -0.410071 -0.462652 -0.514007 -0.535246 -0.546335 -0.55104 -0.55299 -0.546123 -0.547208 -0.558648 -0.558117 -0.557438 -0.551751 -0.547526 -0.542194 -0.53619 -0.537025 -0.541159 -0.543277 -0.545544 -0.548369 -0.552378 -0.550431 -0.546047 -0.544036 -0.539217 -0.537365 -0.535677 -0.530796 -0.528054 -0.526395 -0.523771 -0.516739 -0.513045 -0.51072 -0.510415 -0.515849 -0.515172 -0.512906 -0.510491 -0.508269 -0.505351 -0.500768 -0.495585 -0.489527 -0.484544 -0.481349 -0.478818 -0.477331 -0.473262 -0.468994 -0.466164 -0.465016 -0.46398 -0.462844 -0.458822 -0.457015 -0.457422 -0.455097 -0.454572 -0.453643 -0.453946 -0.451769 -0.448185 -0.446056 -0.443369 -0.440672 -0.438285 -0.436479 -0.434931 -0.432751 -0.431849 -0.431415 -0.430611 -0.430143 -0.429206 -0.427514 -0.425936 -0.424821 -0.423583 -0.422113 -0.420265 -0.418862 -0.417236 -0.415748 -0.415093 -0.413896 -0.413159 -0.412474 -0.412302 -0.411645 -0.411175 -0.40925 -0.408358 -0.406762 -0.405921 -0.403137 -0.401355 -0.396999
285.5175 0.00025 -0.677799 -0.706732 -0.758773 -0.811023 -0.831933 -0.844313 -0.84865 -0.850575 -0.843401 -0.844838 -0.85732 -0.856577 -0.856118 -0.850813 -0.846644 -0.841081 -0.835188 -0.835944 -0.840003 -0.842067 -0.844133 -0.846861 -0.850625 -0.848321 -0.844005 -0.842418 -0.83789 -0.835854 -0.833929 -0.829078 -0.826202 -0.824287 -0.821517 -0.814719 -0.810935 -0.808669 -0.808377 -0.813678 -0.812968 -0.810877 -0.808488 -0.806262 -0.803245 -0.798876 -0.794071 -0.787909 -0.782854 -0.779776 -0.777243 -0.775918 -0.771653 -0.767198 -0.764428 -0.763309 -0.762442 -0.761398 -0.757362 -0.755557 -0.755844 -0.753584 -0.753186 -0.752165 -0.752316 -0.750302 -0.746717 -0.744465 -0.741768 -0.739033 -0.736599 -0.734836 -0.733328 -0.731066 -0.730113 -0.729668 -0.728897 -0.728461 -0.727515 -0.725833 -0.724218 -0.723083 -0.721819 -0.720306 -0.718532 -0.717123 -0.715481 -0.714023 -0.713367 -0.712155 -0.711407 -0.710713 -0.710517 -0.709877 -0.709414 -0.707515 -0.706611 -0.705007 -0.704165 -0.701387 -0.699596 -0.695246
285.52 0.00025 -0.406838 -0.435838 -0.488161 -0.540409 -0.560875 -0.573842 -0.577905 -0.579858 -0.572262 -0.573487 -0.586524 -0.585147 -0.584517 -0.57971 -0.575354 -0.569973 -0.564534 -0.565459 -0.569617 -0.571686 -0.573697 -0.576391 -0.580145 -0.577385 -0.573226 -0.571895 -0.567951 -0.565871 -0.56328 -0.558938 -0.556165 -0.553719 -0.550479 -0.543912 -0.539871 -0.537139 -0.536874 -0.541882 -0.540939 -0.539096 -0.536562 -0.53473 -0.531678 -0.527232 -0.522655 -0.516269 -0.511213 -0.508031 -0.505537 -0.504599 -0.500438 -0.496032 -0.493222 -0.492228 -0.491575 -0.490611 -0.486552 -0.484619 -0.484888 -0.482634 -0.482272 -0.481251 -0.481374 -0.479504 -0.475863 -0.473635 -0.470941 -0.468123 -0.465717 -0.463986 -0.462575 -0.460306 -0.459353 -0.458918 -0.458184 -0.457785 -0.456839 -0.455178 -0.453529 -0.452378 -0.451111 -0.449623 -0.44788 -0.44646 -0.444816 -0.443399 -0.44276 -0.441547 -0.440762 -0.440064 -0.439874 -0.439257 -0.438821 -0.436953 -0.436032 -0.434411 -0.433583 -0.430809 -0.428996 -0.424659
285.5225 0.00025 -0.0215365 -0.0503321 -0.102137 -0.154335 -0.174422 -0.188064 -0.192749 -0.194795 -0.187192 -0.188442 -0.201605 -0.19989 -0.19911 -0.194824 -0.190657 -0.185454 -0.180475 -0.181178 -0.185531 -0.187731 -0.189814 -0.192523 -0.196103 -0.193243 -0.189268 -0.188016 -0.184719 -0.182645 -0.17995 -0.175629 -0.172967 -0.17023 -0.166953 -0.160483 -0.156402 -0.153445 -0.153351 -0.158124 -0.157192 -0.155479 -0.152829 -0.150889 -0.147865 -0.143681 -0.139452 -0.132954 -0.127807 -0.124728 -0.122198 -0.12135 -0.117025 -0.112589 -0.109767 -0.108666 -0.108148 -0.107196 -0.103172 -0.101047 -0.101047 -0.0988394 -0.0985685 -0.0975116 -0.0974883 -0.0957641 -0.0921699 -0.0899159 -0.0872585 -0.0844145 -0.0819116 -0.0802494 -0.0788589 -0.0765407 -0.0755481 -0.0751185 -0.0744151 -0.0740312 -0.0730787 -0.0714095 -0.0697457 -0.0685929 -0.0673031 -0.0658357 -0.064142 -0.0627218 -0.0610952 -0.0597055 -0.059057 -0.0578134 -0.057024 -0.056305 -0.0561188 -0.055503 -0.055083 -0.0532289 -0.0522839 -0.0506334 -0.04981 -0.0470408 -0.0452405 -0.0409084
285.525 0.00025 0.0322484 0.00398115 -0.0475906 -0.0998381 -0.119996 -0.134605 -0.13924 -0.140882 -0.133405 -0.133827 -0.147407 -0.145216 -0.14434 -0.139958 -0.135782 -0.13069 -0.126234 -0.126715 -0.130598 -0.132793 -0.134773 -0.137379 -0.14055 -0.137527 -0.133697 -0.132514 -0.129833 -0.127681 -0.124678 -0.121029 -0.118098 -0.114899 -0.11137 -0.105333 -0.100892 -0.0977217 -0.0979493 -0.102486 -0.101234 -0.0999235 -0.0974973 -0.0957601 -0.0925014 -0.0883845 -0.0845294 -0.0778371 -0.0727004 -0.0696043 -0.0671179 -0.0665563 -0.062254 -0.0577738 -0.054918 -0.0541007 -0.0538173 -0.0529491 -0.0489365 -0.0468133 -0.0467704 -0.04457 -0.0443595 -0.0432043 -0.0431114 -0.041451 -0.0377612 -0.0354661 -0.0328174 -0.0298617 -0.0272751 -0.0256389 -0.0243065 -0.0219322 -0.0208901 -0.0204388 -0.0197537 -0.019394 -0.0184817 -0.0168387 -0.0151367 -0.0139637 -0.0126371 -0.011129 -0.00948512 -0.00806499 -0.00642047 -0.00506304 -0.00441145 -0.00315568 -0.00235041 -0.00161186 -0.00142245 -0.0008229 -0.000430998 0.00140339 0.00236455 0.00403356 0.00484101 0.00759709 0.0093975 0.0137321
285.5275 0.00025 -0.0762364 -0.104564 -0.155991 -0.208453 -0.228077 -0.243577 -0.2488 -0.250032 -0.242748 -0.242711 -0.256297 -0.254018 -0.25344 -0.249671 -0.245426 -0.240611 -0.236794 -0.237297 -0.240889 -0.243191 -0.245045 -0.247372 -0.249829 -0.246807 -0.242948 -0.241447 -0.239453 -0.237453 -0.234275 -0.230641 -0.227572 -0.224157 -0.22017 -0.214448 -0.210108 -0.206657 -0.206898 -0.211087 -0.209842 -0.208524 -0.205955 -0.204105 -0.200871 -0.196901 -0.193382 -0.186476 -0.181249 -0.178308 -0.175867 -0.175428 -0.171047 -0.166632 -0.163669 -0.162785 -0.16264 -0.16181 -0.157899 -0.155579 -0.155368 -0.153247 -0.153154 -0.151952 -0.151829 -0.150201 -0.14663 -0.144331 -0.141705 -0.138677 -0.136059 -0.134398 -0.133086 -0.1307 -0.129597 -0.129124 -0.128455 -0.128141 -0.127243 -0.125609 -0.123871 -0.122704 -0.121379 -0.11988 -0.118298 -0.116858 -0.115179 -0.113866 -0.113223 -0.111955 -0.111115 -0.110355 -0.110168 -0.109586 -0.109203 -0.107405 -0.10643 -0.104737 -0.103945 -0.101198 -0.0993764 -0.0950397
285.53 0.00025 -0.0549302 -0.0827715 -0.134745 -0.186917 -0.206498 -0.222199 -0.227802 -0.228934 -0.222186 -0.221626 -0.234974 -0.232688 -0.231894 -0.228309 -0.223858 -0.219226 -0.215783 -0.215995 -0.219379 -0.221587 -0.223483 -0.225758 -0.227852 -0.224937 -0.220962 -0.219133 -0.217923 -0.21625 -0.212853 -0.209337 -0.206253 -0.202515 -0.198285 -0.192785 -0.188138 -0.18443 -0.184933 -0.188819 -0.187332 -0.186312 -0.183847 -0.182212 -0.178724 -0.174996 -0.171766 -0.164716 -0.159443 -0.1565 -0.154127 -0.153983 -0.149556 -0.145121 -0.142121 -0.141427 -0.141576 -0.140666 -0.136869 -0.134529 -0.134181 -0.132136 -0.132027 -0.130805 -0.130552 -0.128996 -0.125359 -0.123 -0.120407 -0.117357 -0.114667 -0.113018 -0.111759 -0.109375 -0.108229 -0.107729 -0.107107 -0.106828 -0.105923 -0.104318 -0.102596 -0.101453 -0.100143 -0.0986343 -0.0970887 -0.0956662 -0.0939977 -0.0927163 -0.0920597 -0.0907733 -0.0899303 -0.0891528 -0.0889654 -0.0883792 -0.0879995 -0.0862327 -0.0852491 -0.0835363 -0.0827257 -0.0799711 -0.0781594 -0.0738329
285.5325 0.00025 0.0982939 0.07071 0.0188389 -0.0320778 -0.0512823 -0.067652 -0.0741474 -0.0753145 -0.0689474 -0.0678173 -0.0814763 -0.0792495 -0.0779741 -0.0746334 -0.070046 -0.0658795 -0.0630472 -0.0627959 -0.065815 -0.0679837 -0.0696673 -0.0720659 -0.0733706 -0.0705498 -0.0666012 -0.064251 -0.0633617 -0.0622354 -0.0587707 -0.0552617 -0.0521211 -0.0479101 -0.0436031 -0.0382129 -0.0334226 -0.0295319 -0.0303342 -0.0336693 -0.0319356 -0.0310883 -0.0285077 -0.0270307 -0.0235018 -0.0197252 -0.0170525 -0.00981892 -0.0045481 -0.00166276 0.000741106 0.000857593 0.00538458 0.00979465 0.01303 0.0136214 0.0133045 0.0142324 0.0179121 0.0204048 0.0209349 0.0229333 0.0229166 0.0241783 0.024566 0.0260123 0.0296363 0.0320269 0.0345765 0.037671 0.0404493 0.0420854 0.0432885 0.04568 0.0468543 0.0473777 0.0479681 0.0482134 0.0490775 0.0506513 0.0524276 0.0536008 0.0549552 0.0564833 0.057969 0.0593727 0.0610434 0.0623031 0.0629423 0.064257 0.065128 0.0659099 0.0660937 0.0666702 0.0670213 0.0687617 0.0697566 0.0714874 0.0722882 0.0750423 0.076851 0.0811586
285.535 0.00025 0.27285 0.245053 0.192981 0.142836 0.123662 0.10639 0.0995378 0.09892 0.104948 0.106721 0.0934569 0.095553 0.0970701 0.100352 0.104635 0.10869 0.110606 0.111157 0.108182 0.105873 0.104502 0.10202 0.101539 0.104556 0.108477 0.110927 0.111487 0.112121 0.115956 0.119373 0.122583 0.127034 0.131532 0.136711 0.141696 0.145674 0.144628 0.141449 0.143445 0.144192 0.146733 0.148226 0.152049 0.155577 0.157928 0.165357 0.170774 0.173497 0.17589 0.175854 0.180335 0.184788 0.188035 0.188527 0.187945 0.188842 0.192514 0.195042 0.195614 0.197502 0.197492 0.198799 0.199307 0.200827 0.204465 0.206903 0.209494 0.212595 0.215481 0.217113 0.218201 0.220579 0.221816 0.222384 0.222947 0.223136 0.223988 0.225571 0.227384 0.228592 0.229967 0.231512 0.232955 0.23436 0.236048 0.237284 0.237914 0.239226 0.240106 0.240917 0.241094 0.241642 0.241982 0.243698 0.244689 0.246427 0.247213 0.249945 0.251748 0.256056
285.5375 0.00025 0.391582 0.363998 0.311831 0.262692 0.244722 0.227169 0.219365 0.21862 0.224167 0.226426 0.213617 0.215002 0.216863 0.220153 0.224517 0.227901 0.228975 0.229567 0.227124 0.224923 0.223752 0.221318 0.221471 0.224162 0.228006 0.230684 0.230982 0.231003 0.234695 0.238311 0.241615 0.246393 0.251135 0.25608 0.261182 0.265435 0.26433 0.261563 0.263722 0.2643 0.266875 0.268101 0.271868 0.275384 0.277271 0.28476 0.290148 0.29295 0.295206 0.295139 0.299583 0.303843 0.30739 0.307781 0.307032 0.307971 0.311381 0.313975 0.314827 0.316654 0.316594 0.317968 0.318564 0.320014 0.323622 0.326085 0.328613 0.331768 0.334732 0.336407 0.33744 0.339829 0.341121 0.341703 0.342244 0.342429 0.343286 0.344847 0.346636 0.34781 0.349177 0.350725 0.352128 0.353514 0.355213 0.356413 0.357044 0.358346 0.359236 0.360065 0.360244 0.360793 0.36111 0.362779 0.36378 0.365547 0.366325 0.369059 0.370873 0.375182
285.54 0.00025 0.325289 0.297899 0.245293 0.196652 0.178007 0.160095 0.150987 0.150119 0.155709 0.158183 0.14604 0.147086 0.149359 0.152551 0.15701 0.160258 0.160413 0.161507 0.159476 0.157166 0.155867 0.153319 0.154057 0.156425 0.160237 0.163534 0.163572 0.162964 0.167222 0.170834 0.174225 0.179083 0.184286 0.189498 0.194761 0.198837 0.197598 0.195258 0.19754 0.19802 0.200468 0.201397 0.205401 0.208898 0.210286 0.217964 0.223415 0.226145 0.228287 0.228091 0.232557 0.236859 0.240461 0.240629 0.239625 0.240582 0.243835 0.246513 0.247435 0.249196 0.249065 0.250524 0.251225 0.252646 0.256231 0.258661 0.261096 0.264199 0.267235 0.268964 0.269943 0.272271 0.273562 0.274211 0.274751 0.274904 0.275706 0.277221 0.279031 0.28021 0.281592 0.283169 0.284522 0.285878 0.287572 0.288738 0.289359 0.290688 0.291606 0.292441 0.292603 0.293153 0.293464 0.29511 0.29614 0.297941 0.298723 0.301456 0.303271 0.307579
285.5425 0.00025 0.158448 0.131048 0.0781222 0.0300923 0.0120891 -0.00637957 -0.0159592 -0.0169666 -0.0118418 -0.00930493 -0.020515 -0.0195128 -0.0169413 -0.0137871 -0.00962297 -0.00662538 -0.00746127 -0.00616576 -0.00766209 -0.0100393 -0.0110545 -0.0133341 -0.0119221 -0.00978325 -0.00598719 -0.00239199 -0.00290547 -0.00434318 -2.55219e-05 0.00373639 0.00726899 0.012281 0.0178284 0.0228867 0.027941 0.032411 0.031018 0.029036 0.0315808 0.0320114 0.0346188 0.0355065 0.0394929 0.0431115 0.044152 0.0518966 0.0574656 0.0601109 0.0623636 0.0621616 0.0666179 0.0708244 0.0746634 0.0747883 0.0736982 0.0748047 0.0779251 0.0806221 0.0817713 0.0833159 0.083213 0.0847171 0.0855508 0.0870435 0.0906474 0.0931851 0.0957032 0.0988337 0.101962 0.103691 0.104586 0.106916 0.108229 0.108883 0.109406 0.109571 0.110378 0.111874 0.113715 0.114912 0.116319 0.117928 0.119251 0.120607 0.122314 0.123441 0.124058 0.125389 0.126305 0.127161 0.12733 0.127883 0.128179 0.129805 0.130824 0.132636 0.133411 0.136145 0.137964 0.142259
285.545 0.00025 0.0444743 0.0168259 -0.0358346 -0.0832762 -0.101011 -0.119618 -0.130332 -0.131596 -0.126968 -0.124115 -0.134419 -0.13393 -0.130816 -0.127974 -0.123771 -0.121073 -0.122736 -0.121422 -0.122594 -0.124974 -0.125783 -0.128198 -0.126154 -0.124206 -0.120399 -0.116385 -0.117137 -0.119038 -0.115093 -0.111219 -0.107785 -0.1025 -0.0969958 -0.0918133 -0.086868 -0.0825241 -0.0839897 -0.0858453 -0.0833328 -0.0829895 -0.0804949 -0.0797889 -0.0756736 -0.0722347 -0.0715295 -0.0638764 -0.0582121 -0.0555957 -0.0535976 -0.0538481 -0.0495553 -0.0454506 -0.0415196 -0.0416476 -0.0430257 -0.0418447 -0.03889 -0.0361383 -0.0348456 -0.0333396 -0.0335485 -0.0320085 -0.0310746 -0.0296193 -0.0260276 -0.0234952 -0.0209337 -0.0178136 -0.0146364 -0.0128229 -0.0119694 -0.00967626 -0.00828857 -0.00756045 -0.00700991 -0.00689827 -0.00610635 -0.00463174 -0.00277979 -0.00155899 -0.000143138 0.00149336 0.00275095 0.00408599 0.00578588 0.00690074 0.00752618 0.00885414 0.00977544 0.0106478 0.0108148 0.0113542 0.0116225 0.0132079 0.0142371 0.016066 0.0168382 0.0195615 0.0213865 0.0256765
285.5475 0.00025 -0.013949 -0.0417289 -0.0937637 -0.140664 -0.158069 -0.176681 -0.18858 -0.189567 -0.185848 -0.183325 -0.192618 -0.192386 -0.188872 -0.185711 -0.182076 -0.179493 -0.182043 -0.180245 -0.181112 -0.18396 -0.184627 -0.186728 -0.184061 -0.182467 -0.178757 -0.174181 -0.174895 -0.177356 -0.173582 -0.169596 -0.166306 -0.160876 -0.154898 -0.149618 -0.144669 -0.140189 -0.141617 -0.143076 -0.14054 -0.14025 -0.137528 -0.136995 -0.132974 -0.129222 -0.128878 -0.121111 -0.115365 -0.112781 -0.110704 -0.110867 -0.10648 -0.102398 -0.0982179 -0.0984887 -0.100048 -0.0988148 -0.0961913 -0.0934135 -0.0919918 -0.090662 -0.0909408 -0.0892981 -0.0882719 -0.0867544 -0.0832164 -0.0807208 -0.0782326 -0.0751571 -0.0718881 -0.0700011 -0.0692105 -0.0669616 -0.0655703 -0.06479 -0.0642795 -0.064194 -0.0634346 -0.0620007 -0.0600985 -0.0588904 -0.0574809 -0.0558561 -0.0546387 -0.0533196 -0.0516379 -0.050555 -0.0499323 -0.0486048 -0.0476678 -0.0467762 -0.046612 -0.0460911 -0.0458469 -0.0443083 -0.0432874 -0.0414318 -0.04065 -0.0379294 -0.0361048 -0.0318182
285.55 0.00025 -0.0327788 -0.060608 -0.112972 -0.159778 -0.177093 -0.196139 -0.209095 -0.210157 -0.206894 -0.204506 -0.212589 -0.212325 -0.208485 -0.205483 -0.202104 -0.199344 -0.202587 -0.200825 -0.201146 -0.203986 -0.204673 -0.206551 -0.203324 -0.201996 -0.198434 -0.193403 -0.194221 -0.197283 -0.193572 -0.189112 -0.185573 -0.180299 -0.174225 -0.168793 -0.163978 -0.159193 -0.160576 -0.161908 -0.159406 -0.158799 -0.155962 -0.155724 -0.151796 -0.14792 -0.147596 -0.139993 -0.134274 -0.131626 -0.129574 -0.129666 -0.125475 -0.121438 -0.117091 -0.117458 -0.119256 -0.118017 -0.115516 -0.112701 -0.111 -0.109764 -0.109997 -0.108274 -0.107159 -0.105733 -0.10215 -0.0996968 -0.0971692 -0.0941101 -0.0908014 -0.088899 -0.0881662 -0.0859288 -0.084543 -0.0837221 -0.0832215 -0.0831105 -0.0823608 -0.0809664 -0.0790757 -0.077847 -0.0764077 -0.074738 -0.0735154 -0.0722102 -0.0705185 -0.0694638 -0.0688482 -0.0675052 -0.0665439 -0.0656409 -0.0654889 -0.0649565 -0.0647015 -0.0631795 -0.0621479 -0.0602617 -0.0594866 -0.0567658 -0.0549518 -0.0506767
285.5525 0.00025 0.0580562 0.0297945 -0.0221288 -0.0676508 -0.0848313 -0.103956 -0.117364 -0.117585 -0.11436 -0.112399 -0.119317 -0.11989 -0.116366 -0.11341 -0.110533 -0.107645 -0.111418 -0.110047 -0.109839 -0.112634 -0.11337 -0.114997 -0.110862 -0.10976 -0.106385 -0.101096 -0.102018 -0.10548 -0.101928 -0.0976088 -0.0941261 -0.0887824 -0.0824695 -0.0767864 -0.0720158 -0.0670643 -0.0681164 -0.0693461 -0.0667211 -0.0664643 -0.0635761 -0.063603 -0.0597614 -0.0556795 -0.055673 -0.0481719 -0.0423368 -0.0397317 -0.0376236 -0.0376964 -0.0335312 -0.0296939 -0.0252586 -0.0258317 -0.0277567 -0.0263522 -0.0241094 -0.0212803 -0.0194168 -0.0182268 -0.0185761 -0.0166741 -0.0155715 -0.0140735 -0.0106027 -0.00813535 -0.00555637 -0.00257121 0.000799063 0.00280481 0.0035318 0.00571228 0.00718255 0.00806931 0.00857648 0.00863979 0.00939785 0.0107359 0.0126318 0.0139065 0.0153401 0.0170382 0.018215 0.0194876 0.0211723 0.0222105 0.0228254 0.0241654 0.0251145 0.0260301 0.0261844 0.0267112 0.0269565 0.0284445 0.0294817 0.0313691 0.032144 0.0348585 0.036673 0.0409468
285.555 0.00025 0.0930334 0.0648328 0.013336 -0.0322658 -0.0502398 -0.0701321 -0.0843361 -0.0837807 -0.0804819 -0.0789298 -0.0844954 -0.0856996 -0.0818787 -0.0785052 -0.0761161 -0.0731283 -0.0769751 -0.0757192 -0.0749888 -0.0780664 -0.0788229 -0.0802235 -0.0755134 -0.0747377 -0.0715384 -0.0658579 -0.0668823 -0.0707051 -0.0674707 -0.0630001 -0.0597022 -0.0542764 -0.0476346 -0.0417828 -0.0371651 -0.0317777 -0.032835 -0.0339639 -0.0312982 -0.0305939 -0.0274282 -0.0275721 -0.0239441 -0.0197485 -0.0198217 -0.0123663 -0.00662274 -0.00393483 -0.00186106 -0.00180981 0.00232739 0.00602515 0.0106209 0.00994094 0.00782275 0.00925987 0.011338 0.014278 0.0163081 0.0173437 0.0169424 0.0188764 0.0201175 0.0215856 0.0250489 0.0275238 0.0300615 0.0329692 0.0363579 0.0384238 0.0390943 0.0412317 0.0426772 0.0436364 0.0441673 0.0442496 0.0449797 0.0462958 0.048239 0.0495202 0.050958 0.0526897 0.0538236 0.0550778 0.0567461 0.0577821 0.0584026 0.0597351 0.0606878 0.0616318 0.0617888 0.0623174 0.0625385 0.0639945 0.0650283 0.066942 0.0677225 0.070428 0.0722605 0.0765255
285.5575 0.00025 -0.0174357 -0.0458373 -0.0974045 -0.142156 -0.160219 -0.180173 -0.194605 -0.19343 -0.190162 -0.189327 -0.193427 -0.19446 -0.190175 -0.186507 -0.184684 -0.182024 -0.18618 -0.185358 -0.184033 -0.187203 -0.188077 -0.188833 -0.183492 -0.183112 -0.180118 -0.174074 -0.175287 -0.179424 -0.176291 -0.171777 -0.16849 -0.163308 -0.156453 -0.150619 -0.146318 -0.140757 -0.141632 -0.142666 -0.140344 -0.139663 -0.136343 -0.136853 -0.133461 -0.128852 -0.128827 -0.121588 -0.11604 -0.113507 -0.111487 -0.111361 -0.107339 -0.103569 -0.0988456 -0.0996386 -0.101922 -0.100488 -0.098694 -0.0959203 -0.0937322 -0.0927648 -0.0931493 -0.0911127 -0.0898393 -0.0883804 -0.0849408 -0.0824641 -0.0799039 -0.0769595 -0.0735179 -0.071337 -0.0706955 -0.068637 -0.0671829 -0.0661957 -0.0656702 -0.0656362 -0.0649117 -0.0636174 -0.0616982 -0.0604215 -0.0589686 -0.0572256 -0.0561076 -0.054885 -0.0532268 -0.0522153 -0.0515776 -0.0502445 -0.049271 -0.0483166 -0.0481693 -0.047663 -0.0474442 -0.0460259 -0.0449949 -0.0430608 -0.042279 -0.0395823 -0.0377518 -0.0334994
285.56 0.00025 -0.143306 -0.172071 -0.222895 -0.267045 -0.285082 -0.304933 -0.320418 -0.318987 -0.315871 -0.315643 -0.318599 -0.320204 -0.316236 -0.312231 -0.311378 -0.308732 -0.313037 -0.312523 -0.310881 -0.313915 -0.31499 -0.315612 -0.309673 -0.30975 -0.307139 -0.300504 -0.301599 -0.305993 -0.302928 -0.298454 -0.295009 -0.289896 -0.282771 -0.276724 -0.272398 -0.266428 -0.266975 -0.267888 -0.265664 -0.264649 -0.261169 -0.261757 -0.25858 -0.253742 -0.253782 -0.246657 -0.241062 -0.238385 -0.236226 -0.236003 -0.232005 -0.228507 -0.223649 -0.224528 -0.226885 -0.225322 -0.223691 -0.220781 -0.218464 -0.217594 -0.218098 -0.215933 -0.214598 -0.213099 -0.209639 -0.207247 -0.204741 -0.201903 -0.198471 -0.196174 -0.195545 -0.193552 -0.192061 -0.191044 -0.190525 -0.19049 -0.189761 -0.18855 -0.186633 -0.185338 -0.183863 -0.182116 -0.181005 -0.179778 -0.17811 -0.177123 -0.176474 -0.175149 -0.174159 -0.173187 -0.173039 -0.172522 -0.172318 -0.170928 -0.169896 -0.167934 -0.167153 -0.164443 -0.162613 -0.158359
285.5625 0.00025 -0.176444 -0.205336 -0.256221 -0.299632 -0.318601 -0.339064 -0.354108 -0.352683 -0.349665 -0.350261 -0.3525 -0.354134 -0.350202 -0.346027 -0.346048 -0.34343 -0.347526 -0.347414 -0.345468 -0.348291 -0.34978 -0.350162 -0.343349 -0.34371 -0.341276 -0.334383 -0.335679 -0.340229 -0.337122 -0.332805 -0.32942 -0.324412 -0.316767 -0.310803 -0.306821 -0.30046 -0.3007 -0.301818 -0.299764 -0.298857 -0.295252 -0.296036 -0.293355 -0.288485 -0.288431 -0.281821 -0.276482 -0.273835 -0.271823 -0.271323 -0.267428 -0.26391 -0.258973 -0.259951 -0.262488 -0.260946 -0.259585 -0.256748 -0.254197 -0.253297 -0.253841 -0.251605 -0.250107 -0.248564 -0.245143 -0.242727 -0.240171 -0.237429 -0.233987 -0.231635 -0.231047 -0.229119 -0.227628 -0.226555 -0.225999 -0.225986 -0.225267 -0.224104 -0.222178 -0.220849 -0.21937 -0.217604 -0.216526 -0.215331 -0.213693 -0.212708 -0.212055 -0.210719 -0.209733 -0.20874 -0.208587 -0.208066 -0.207846 -0.206476 -0.205458 -0.203489 -0.202716 -0.20001 -0.198184 -0.193925
285.565 0.00025 -0.0759741 -0.104988 -0.155428 -0.199024 -0.218467 -0.238613 -0.253293 -0.251583 -0.248498 -0.249771 -0.25115 -0.25265 -0.248707 -0.244232 -0.244875 -0.242618 -0.246458 -0.246941 -0.244628 -0.24705 -0.248562 -0.24839 -0.240973 -0.242051 -0.24006 -0.232591 -0.23399 -0.238657 -0.235703 -0.231435 -0.227863 -0.223111 -0.215295 -0.2092 -0.205394 -0.198627 -0.198561 -0.199645 -0.197752 -0.196462 -0.19265 -0.193543 -0.191054 -0.185752 -0.185469 -0.179027 -0.173756 -0.171018 -0.168948 -0.16835 -0.164687 -0.161292 -0.156311 -0.157358 -0.159891 -0.158337 -0.157175 -0.154294 -0.151633 -0.150825 -0.151368 -0.149003 -0.147524 -0.146006 -0.142579 -0.140212 -0.13763 -0.134792 -0.131357 -0.128871 -0.128278 -0.126426 -0.124921 -0.123786 -0.12326 -0.123262 -0.122564 -0.121431 -0.119493 -0.118158 -0.116667 -0.114874 -0.113823 -0.112663 -0.111044 -0.110086 -0.109433 -0.10809 -0.107119 -0.106121 -0.105963 -0.105456 -0.105251 -0.103898 -0.102867 -0.100885 -0.100091 -0.0973904 -0.0955492 -0.0913116
285.5675 0.00025 0.0592385 0.0303009 -0.0200284 -0.0628052 -0.0827265 -0.103033 -0.117621 -0.116613 -0.113264 -0.11528 -0.116216 -0.117586 -0.114071 -0.109191 -0.110135 -0.107785 -0.111344 -0.112324 -0.109529 -0.111345 -0.112786 -0.112349 -0.104633 -0.105961 -0.104199 -0.0964664 -0.0978443 -0.102248 -0.0994502 -0.0955859 -0.0920946 -0.0874936 -0.0795588 -0.0734037 -0.0694524 -0.0622775 -0.0620398 -0.0633538 -0.0616988 -0.0603665 -0.0563363 -0.0573321 -0.0552904 -0.0499144 -0.0493343 -0.0431674 -0.0381414 -0.0353239 -0.0332254 -0.0327112 -0.0291045 -0.0258274 -0.0207088 -0.0218399 -0.0245482 -0.0230274 -0.0220318 -0.0192992 -0.0165095 -0.0157254 -0.0163904 -0.0139488 -0.0123764 -0.010837 -0.00739875 -0.00513181 -0.00259253 0.000117634 0.00346703 0.00603237 0.00666094 0.00845101 0.00991074 0.0110764 0.0116315 0.011644 0.0123582 0.0134657 0.0153896 0.0167465 0.0182266 0.0200344 0.0210812 0.0222406 0.0238542 0.0247984 0.0254709 0.0267843 0.0277555 0.028771 0.0289332 0.0294282 0.0296284 0.0309309 0.0319508 0.0339448 0.0347343 0.0374327 0.0392731 0.0435184
285.57 0.00025 0.0940966 0.0646644 0.0144683 -0.0281579 -0.0486147 -0.0687643 -0.0832662 -0.0822011 -0.0784599 -0.0807969 -0.0815709 -0.0828304 -0.0791031 -0.0742649 -0.0758127 -0.0737468 -0.0770405 -0.0784829 -0.0756074 -0.0771763 -0.078741 -0.078175 -0.0702624 -0.072009 -0.0705836 -0.0623463 -0.0638985 -0.068245 -0.0653056 -0.0617808 -0.0588109 -0.0542754 -0.0457676 -0.0397344 -0.0358436 -0.0284393 -0.0278617 -0.0290425 -0.0274511 -0.0257514 -0.0215879 -0.0226256 -0.0210241 -0.0153679 -0.0146305 -0.00875754 -0.00397136 -0.00117194 0.000939924 0.00176771 0.00519308 0.00837027 0.0135362 0.0124054 0.00968882 0.0112312 0.0120183 0.0147911 0.017694 0.0184465 0.0176664 0.0202002 0.0219233 0.0234706 0.0269259 0.0292996 0.0319076 0.0345748 0.0379152 0.0405715 0.0412159 0.0429241 0.0443807 0.0455757 0.0461468 0.0461735 0.0468995 0.0479637 0.0498762 0.0512342 0.0527282 0.054555 0.0555803 0.0567281 0.0583375 0.0592748 0.0599511 0.0612751 0.0622537 0.0633022 0.063453 0.0639564 0.0641639 0.0654314 0.0664396 0.068459 0.0692437 0.0719477 0.0737739 0.0780179
285.5725 0.00025 0.073227 0.0436401 -0.00590901 -0.0488514 -0.0706859 -0.0902808 -0.104103 -0.103975 -0.0996904 -0.102767 -0.103318 -0.104156 -0.10024 -0.0952299 -0.097221 -0.0958932 -0.0988968 -0.100489 -0.0976305 -0.0990654 -0.100305 -0.0994451 -0.0915532 -0.0934355 -0.0922729 -0.0836299 -0.0851205 -0.0895222 -0.0863717 -0.0830834 -0.080126 -0.0757331 -0.0670304 -0.0609385 -0.0572304 -0.0494671 -0.0484125 -0.0498504 -0.0485125 -0.0467364 -0.0422838 -0.0433478 -0.0422385 -0.0365946 -0.0355209 -0.0299742 -0.0254197 -0.0224795 -0.0203126 -0.0194324 -0.0161292 -0.0130961 -0.00789011 -0.00906232 -0.0118134 -0.0103207 -0.00970419 -0.0069936 -0.00395226 -0.00316874 -0.00401578 -0.00140532 0.000389836 0.00186391 0.00536219 0.00763956 0.0101972 0.012863 0.0162059 0.0190051 0.0197007 0.0213773 0.0228809 0.0241286 0.0247169 0.0247475 0.0254946 0.0265229 0.0284294 0.0298146 0.0313072 0.033172 0.0342011 0.0353256 0.0369076 0.0378153 0.038492 0.0398388 0.0408185 0.0418781 0.0420394 0.0425364 0.0427345 0.0439867 0.0449804 0.0470077 0.0478057 0.050504 0.0523398 0.0565818