285.5025 0.00025 1.75316 0.288411 0.0949645 0.0552564 0.0430614 0.0359855 0.0308815 0.0277768 0.024969 0.0215427 0.0192163 0.017828 0.0167798 0.0158516 0.0152967 0.0142409 0.0133369 0.0126875 0.011897 0.0112192 0.0109345 0.0104567 0.00998279 0.0095921 0.00932175 0.00919476 0.00918096 0.00905796 0.00882898 0.00865811 0.00842894 0.00817562 0.00784283 0.00750229 0.00728581 0.00710087 0.00693022 0.00676111 0.00653939 0.00632098 0.00617322 0.00608072 0.0059934 0.00573884 0.00556921 0.0053497 0.00502948 0.00467549 0.00432648 0.00410096 0.00385973 0.0035989 0.00345566 0.00341849 0.00344425 0.00336019 0.00331451 0.00322658 0.00306578 0.00294702 0.00277646 0.00256596 0.00240397 0.00226093 0.0021431 0.0019742 0.00182741 0.00172525 0.00159101 0.00142732 0.00131555 0.00123917 0.00118962 0.00113604 0.00106464 0.00100605 0.000956117 0.000922146 0.000896972 0.000851368 0.000826949 0.000799027 0.00074716 0.00071731 0.00069381 0.000665076 0.000640773 0.000618645 0.000587941 0.000556891 0.000546404 0.000538087 0.000524422 0.000511161 0.000494001 0.000470664 0.000468848 0.00049405 0.000523633 0.000534148
285.505 0.00025 1.75369 0.288555 0.0950112 0.0552105 0.0430246 0.0359444 0.0308668 0.027761 0.0250056 0.0215407 0.0191801 0.0177794 0.0167551 0.0158289 0.0152748 0.0142266 0.0133364 0.0127085 0.0119142 0.0112355 0.0109452 0.0104738 0.00998846 0.00958559 0.00932583 0.00920978 0.009211 0.00908346 0.00884711 0.00866605 0.00842937 0.00816851 0.00783518 0.00749605 0.00727272 0.0070895 0.00693034 0.00676317 0.00653926 0.00632002 0.0061695 0.00608218 0.00599004 0.0057246 0.00555146 0.00534649 0.00503113 0.00467473 0.00432827 0.00410593 0.00386168 0.00359916 0.00345687 0.0034176 0.0034401 0.00335264 0.00330724 0.00322173 0.0030582 0.00294438 0.00277663 0.0025657 0.00240463 0.0022622 0.00214159 0.00197493 0.00182907 0.00172631 0.00159441 0.00143001 0.00131734 0.00123943 0.00118925 0.00113608 0.00106506 0.001007 0.000956413 0.000921993 0.000897323 0.000851088 0.000825884 0.0007985 0.000746828 0.000716893 0.000693334 0.000664652 0.000640603 0.000618616 0.000588085 0.000556911 0.0005462 0.000537914 0.000524308 0.000511083 0.000493975 0.000470709 0.000468697 0.000493749 0.000523139 0.000533493
285.5075 0.00025 1.75421 0.288864 0.094985 0.0551613 0.0429925 0.0359096 0.0308457 0.0277484 0.0250337 0.0215409 0.0191408 0.0177351 0.0167321 0.0158093 0.0152528 0.0142141 0.0133353 0.0127256 0.011938 0.011249 0.0109513 0.0104912 0.00999705 0.00958267 0.00933022 0.00922155 0.00924112 0.00911093 0.00886893 0.00867288 0.00842823 0.0081648 0.00782532 0.00748984 0.0072601 0.00707812 0.00692471 0.00676365 0.00653903 0.00631856 0.00616635 0.00608141 0.00598767 0.00571018 0.00553079 0.00534301 0.00503139 0.0046735 0.00433061 0.00410921 0.0038632 0.00360002 0.00345701 0.00341809 0.00343608 0.00334603 0.00330144 0.00321853 0.00304945 0.00294113 0.00277656 0.00256572 0.00240565 0.00226429 0.00214047 0.00197512 0.00183113 0.0017272 0.0015977 0.00143306 0.00131897 0.00123983 0.00118892 0.00113608 0.0010654 0.00100807 0.00095659 0.000921818 0.000897704 0.000850889 0.000824776 0.00079792 0.000746506 0.000716432 0.000692913 0.000664295 0.000640351 0.000618555 0.000588157 0.000556917 0.000546111 0.000537753 0.000524188 0.000510987 0.000493927 0.000470709 0.000468514 0.000493428 0.000522674 0.000532941
285.51 0.00025 1.7547 0.288905 0.0949712 0.0551165 0.042957 0.0358854 0.0308371 0.0277276 0.0250586 0.0215382 0.0191107 0.017686 0.0167067 0.0157911 0.015231 0.0142049 0.013334 0.0127422 0.0119597 0.0112662 0.0109605 0.0105079 0.0100055 0.00957891 0.0093326 0.00923224 0.009267 0.00913812 0.00888903 0.0086825 0.00843002 0.00815974 0.00781835 0.00748559 0.0072492 0.00706563 0.00692155 0.00676384 0.0065419 0.00631713 0.00616505 0.00608181 0.00598353 0.00569651 0.00551184 0.00533869 0.00503247 0.00467242 0.00433247 0.00411231 0.00386448 0.00360074 0.00345849 0.00341784 0.00343114 0.00333838 0.00329494 0.00321443 0.00304219 0.00293688 0.002777 0.0025659 0.0024067 0.00226574 0.00213949 0.00197506 0.00183235 0.00172821 0.00160077 0.00143601 0.0013208 0.00124033 0.00118863 0.00113611 0.00106571 0.00100888 0.0009568 0.000921506 0.00089809 0.000850768 0.000823625 0.000797418 0.00074619 0.000715954 0.000692395 0.000663864 0.00064006 0.000618421 0.000588299 0.00055701 0.000545909 0.000537589 0.000524083 0.0005109 0.000493875 0.000470736 0.000468299 0.000493103 0.000522192 0.000532306
285.5125 0.00025 1.75516 0.288925 0.0949351 0.0550761 0.0429128 0.0358668 0.0308301 0.0277072 0.0250715 0.0215413 0.019082 0.0176347 0.0166796 0.0157721 0.0152065 0.0141979 0.0133313 0.012753 0.0119771 0.0112801 0.0109643 0.010522 0.0100145 0.00958394 0.00933743 0.00924086 0.00929185 0.00916717 0.00891139 0.00868893 0.00843203 0.00815558 0.00781115 0.00748026 0.00723813 0.00705455 0.0069162 0.00676249 0.0065434 0.00631809 0.00616358 0.00607991 0.00597904 0.00568339 0.00549203 0.00533405 0.00503328 0.00467175 0.00433269 0.0041143 0.00386583 0.00360157 0.00345979 0.00341762 0.00342694 0.00333183 0.00328892 0.00321068 0.00303564 0.00293335 0.0027768 0.00256726 0.00240793 0.00226765 0.00213807 0.00197571 0.00183352 0.00172946 0.0016042 0.0014391 0.0013224 0.00124085 0.00118847 0.00113614 0.001066 0.0010097 0.000957243 0.000921298 0.000898399 0.000850643 0.000822552 0.000796901 0.000745907 0.000715544 0.000691978 0.00066349 0.000639764 0.00061831 0.000588379 0.000557079 0.000545738 0.000537428 0.000523987 0.000510822 0.000493843 0.00047074 0.000468106 0.00049278 0.000521765 0.000531682
285.515 0.00025 1.75558 0.289155 0.0949713 0.0550247 0.0428525 0.0358496 0.0308375 0.0277013 0.0250776 0.0215457 0.0190579 0.0175846 0.0166471 0.0157542 0.0151805 0.0141934 0.0133316 0.0127606 0.0119949 0.0112937 0.0109691 0.0105428 0.0100265 0.00958938 0.00933974 0.00924878 0.0093108 0.00919626 0.0089317 0.0086949 0.00843595 0.00815399 0.00780267 0.00747448 0.00722834 0.00704584 0.00690979 0.00676355 0.00654349 0.00631819 0.00616178 0.00607755 0.00597529 0.00567168 0.00547381 0.00532971 0.0050347 0.00467123 0.00433352 0.0041173 0.00386712 0.0036024 0.00346182 0.00341715 0.0034226 0.00332508 0.00328317 0.00320769 0.00302916 0.00292813 0.00277592 0.00256814 0.00240947 0.00226987 0.00213703 0.00197544 0.00183468 0.00173079 0.00160745 0.00144226 0.00132402 0.00124134 0.00118862 0.00113632 0.00106625 0.00101045 0.000957567 0.000921093 0.000898669 0.00085064 0.000821537 0.000796234 0.000745612 0.000715078 0.000691618 0.000663084 0.000639479 0.000618145 0.000588498 0.000557143 0.000545576 0.000537238 0.000523878 0.000510736 0.000493775 0.000470758 0.000467907 0.000492527 0.000521308 0.000531101
285.5175 0.00025 1.75597 0.289388 0.094979 0.0549753 0.0427921 0.0358317 0.0308429 0.0276776 0.0250911 0.0215479 0.0190369 0.0175286 0.016615 0.0157324 0.0151577 0.014184 0.0133254 0.0127662 0.0120089 0.0113116 0.0109753 0.010556 0.0100374 0.0095941 0.0093449 0.00925718 0.00932723 0.00922471 0.00895287 0.00870429 0.00844133 0.00815375 0.00779266 0.00746696 0.00722026 0.00703619 0.00690186 0.00676075 0.00654368 0.00631906 0.00616101 0.00607415 0.00596989 0.00566006 0.00545588 0.00532386 0.0050347 0.00467056 0.00433415 0.00411802 0.00386876 0.00360299 0.00346457 0.00341729 0.00341906 0.00331835 0.00327731 0.0032024 0.00302389 0.00292282 0.00277501 0.00256881 0.00241071 0.00227222 0.0021365 0.00197516 0.00183669 0.00173163 0.00161036 0.00144561 0.00132554 0.00124266 0.00118852 0.00113643 0.00106645 0.00101119 0.000957869 0.000920843 0.00089896 0.000850599 0.000820561 0.000795692 0.000745347 0.000714652 0.000691153 0.000662764 0.000639223 0.000617942 0.000588654 0.000557241 0.000545407 0.000537105 0.000523783 0.00051062 0.000493708 0.000470793 0.000467781 0.000492247 0.000520881 0.000530481
285.52 0.00025 1.75632 0.289849 0.0950222 0.0549368 0.0427424 0.0358193 0.0308466 0.0276746 0.0250972 0.0215491 0.0190185 0.0174781 0.0165821 0.0157137 0.0151356 0.0141806 0.013328 0.0127739 0.0120213 0.0113301 0.0109828 0.01057 0.0100503 0.00960342 0.00934684 0.00926291 0.00934034 0.00925117 0.00897051 0.00871229 0.00845069 0.00815278 0.00778549 0.00746074 0.00721293 0.00702691 0.00689389 0.00675921 0.00654396 0.0063206 0.006162 0.00607041 0.00596432 0.00564953 0.00543787 0.00531619 0.00503545 0.00466979 0.00433283 0.00411791 0.00386926 0.00360408 0.00346672 0.00341699 0.00341409 0.00331151 0.00327094 0.00319796 0.00301673 0.00291704 0.00277404 0.00256958 0.00241218 0.00227388 0.00213545 0.00197494 0.00183775 0.00173253 0.00161353 0.0014491 0.00132711 0.00124325 0.00118849 0.00113663 0.00106661 0.00101186 0.000958347 0.000920638 0.000899212 0.000850636 0.000819641 0.000794988 0.000745054 0.00071424 0.000690624 0.00066233 0.000639043 0.000617705 0.000588754 0.000557349 0.000545246 0.000536942 0.000523651 0.000510558 0.000493627 0.000470823 0.000467612 0.000491963 0.000520413 0.000529941
285.5225 0.00025 1.75661 0.289935 0.0950918 0.0549074 0.0426728 0.0358045 0.0308547 0.027655 0.0250959 0.021549 0.0190043 0.0174252 0.0165492 0.0156949 0.0151143 0.0141741 0.0133272 0.0127755 0.0120304 0.0113482 0.0109901 0.0105851 0.0100635 0.00961453 0.00935062 0.00926953 0.00935244 0.00927594 0.00898703 0.00872284 0.00845834 0.00815349 0.00777842 0.00745271 0.00720269 0.00701727 0.00688591 0.00675666 0.00654347 0.00632212 0.00616405 0.00606779 0.0059582 0.00563914 0.0054213 0.00530883 0.00503604 0.00467002 0.00433202 0.00411783 0.00386931 0.00360491 0.00346914 0.00341699 0.00340977 0.00330495 0.00326325 0.00319496 0.00301172 0.00291081 0.00277224 0.00257058 0.00241429 0.00227531 0.00213517 0.00197439 0.00183892 0.00173313 0.00161631 0.00145287 0.00132886 0.00124414 0.00118853 0.00113691 0.00106701 0.00101253 0.000958796 0.000920458 0.000899433 0.000850689 0.000818696 0.000794334 0.000744803 0.000713821 0.000690121 0.000661946 0.000638689 0.000617538 0.000588856 0.000557471 0.000545086 0.000536764 0.000523517 0.000510454 0.00049354 0.000470856 0.000467446 0.000491686 0.000519942 0.000529323
285.525 0.00025 1.75686 0.289975 0.0950868 0.0548491 0.0425965 0.035808 0.0308414 0.0276332 0.0250893 0.0215491 0.0189867 0.0173783 0.0165098 0.015672 0.0150923 0.0141673 0.0133328 0.0127789 0.0120355 0.0113625 0.0110023 0.0106003 0.0100765 0.00962685 0.0093598 0.00927527 0.00936206 0.00929786 0.00900323 0.00873235 0.00846793 0.00815518 0.00776976 0.00744364 0.00719543 0.00700768 0.00687839 0.0067547 0.00654393 0.00632607 0.00616622 0.00606368 0.00595012 0.00562969 0.00540504 0.0053023 0.00503555 0.00466948 0.00433079 0.00411652 0.00387089 0.00360557 0.00347196 0.00341677 0.00340413 0.0032983 0.00325643 0.0031899 0.00300533 0.0029038 0.00277019 0.00257127 0.00241591 0.00227657 0.00213537 0.00197391 0.00183949 0.00173432 0.00161914 0.0014565 0.00133064 0.00124493 0.00118866 0.00113713 0.00106724 0.00101305 0.000959104 0.000920242 0.000899758 0.000850727 0.000817875 0.00079368 0.000744556 0.000713377 0.000689638 0.000661532 0.000638355 0.000617255 0.0005889 0.000557614 0.000544955 0.000536592 0.000523376 0.000510325 0.000493462 0.000470884 0.00046729 0.000491417 0.000519486 0.00052874
285.5275 0.00025 1.75704 0.289613 0.0951468 0.0547911 0.0425322 0.035792 0.0308442 0.0276131 0.0250904 0.0215453 0.0189765 0.0173304 0.0164655 0.0156517 0.0150716 0.0141596 0.0133342 0.0127799 0.0120386 0.0113745 0.0110137 0.010614 0.0100895 0.00963747 0.00936818 0.00928433 0.00937411 0.00932066 0.00901592 0.00874431 0.00847778 0.00815698 0.00776483 0.00743666 0.00718931 0.00700045 0.00687022 0.00675105 0.00654587 0.00632947 0.00616959 0.00605875 0.00594157 0.00562106 0.00539092 0.00529444 0.00503361 0.00467069 0.00432945 0.00411536 0.00387087 0.00360776 0.0034752 0.0034168 0.00339951 0.00329158 0.00324975 0.00318543 0.00300055 0.00289664 0.0027678 0.00257259 0.00241801 0.00227828 0.00213511 0.00197366 0.00184068 0.00173513 0.0016218 0.00146014 0.00133255 0.00124561 0.00118895 0.00113758 0.00106761 0.00101353 0.000959473 0.000920076 0.00089992 0.000850788 0.000817017 0.000793071 0.000744278 0.000712962 0.000689133 0.000661136 0.000638004 0.000616974 0.000589014 0.00055779 0.000544842 0.000536412 0.00052328 0.000510197 0.000493352 0.000470922 0.000467161 0.000491217 0.000519048 0.000528156
285.53 0.00025 1.75716 0.289865 0.0951578 0.0547568 0.0424652 0.0357786 0.0308242 0.0275895 0.0250906 0.0215427 0.0189634 0.0172844 0.0164242 0.0156331 0.0150497 0.014148 0.0133365 0.0127809 0.0120392 0.0113881 0.0110213 0.010635 0.0101042 0.00964757 0.0093817 0.0092954 0.0093791 0.00933756 0.0090301 0.00875885 0.00849251 0.00816185 0.00776134 0.00742771 0.00718089 0.00699136 0.00686304 0.00674764 0.0065469 0.00633392 0.00617252 0.006052 0.00593279 0.00561434 0.00537609 0.0052857 0.00503259 0.00467108 0.00432831 0.00411226 0.00387047 0.00360905 0.00347896 0.00341678 0.00339487 0.00328573 0.00324278 0.00318103 0.00299679 0.00288903 0.00276522 0.00257356 0.00242004 0.00227986 0.00213507 0.00197407 0.00184142 0.00173596 0.0016243 0.00146436 0.00133433 0.00124621 0.00118919 0.00113786 0.001068 0.00101404 0.000959778 0.000920079 0.000900026 0.000850896 0.000816237 0.000792402 0.000744033 0.000712575 0.000688675 0.000660752 0.000637659 0.000616652 0.000589108 0.000557947 0.000544767 0.000536285 0.000523173 0.000510079 0.000493235 0.000470962 0.000467029 0.000490965 0.000518638 0.000527536
285.5325 0.00025 1.75725 0.29023 0.095241 0.0547223 0.0423881 0.0357531 0.0307926 0.027568 0.0250779 0.0215378 0.0189535 0.0172393 0.0163763 0.0156103 0.0150285 0.0141338 0.013338 0.0127826 0.0120427 0.0113966 0.0110317 0.0106596 0.0101167 0.00966212 0.00939895 0.00930858 0.00938532 0.00935355 0.00904037 0.00877491 0.00850447 0.00816521 0.00775634 0.00742052 0.0071739 0.00698602 0.00685377 0.00674323 0.00654841 0.00633901 0.00617725 0.00604526 0.00592307 0.00560621 0.00536438 0.00527666 0.0050316 0.00467193 0.00432672 0.00410922 0.00386975 0.00361145 0.00348347 0.00341599 0.00338917 0.00327895 0.00323634 0.00317567 0.00299162 0.00288129 0.00276145 0.00257402 0.00242232 0.0022833 0.0021349 0.00197372 0.00184291 0.00173659 0.00162676 0.00146832 0.00133629 0.00124689 0.00118954 0.00113828 0.00106834 0.0010146 0.000960122 0.000919833 0.000900174 0.000851164 0.000815488 0.000791654 0.000743766 0.000712238 0.000688181 0.000660304 0.000637313 0.000616296 0.00058913 0.000558146 0.000544681 0.000536104 0.000523027 0.000510006 0.000493109 0.000471 0.000466951 0.00049071 0.000518242 0.000526964
285.535 0.00025 1.75728 0.290292 0.0952331 0.0546973 0.0423088 0.0357182 0.0307581 0.0275526 0.0250624 0.0215394 0.0189477 0.0171975 0.0163323 0.0155876 0.0150043 0.0141185 0.0133363 0.0127861 0.0120445 0.0114015 0.0110443 0.0106789 0.0101334 0.00966967 0.00941614 0.00932129 0.00938763 0.00936781 0.00904963 0.00878788 0.0085189 0.00817156 0.00775426 0.00741193 0.00716709 0.00697906 0.00684599 0.00673852 0.00654933 0.00634449 0.00618188 0.00603812 0.00591204 0.00559882 0.00535194 0.00526733 0.005029 0.00467411 0.0043254 0.00410666 0.0038688 0.00361357 0.0034873 0.00341573 0.00338401 0.00327245 0.00323033 0.00317032 0.00298597 0.00287329 0.00275739 0.00257415 0.00242399 0.00228478 0.0021347 0.00197357 0.00184346 0.00173666 0.00162881 0.00147234 0.00133853 0.00124829 0.00118994 0.0011387 0.00106869 0.00101515 0.000960634 0.000919673 0.000900303 0.000851393 0.000814769 0.000790947 0.000743559 0.000711833 0.00068768 0.000659992 0.000636972 0.000616027 0.000589146 0.000558383 0.000544575 0.000535952 0.00052291 0.000509882 0.000492974 0.000471042 0.000466839 0.000490465 0.00051787 0.000526399
285.5375 0.00025 1.75726 0.290299 0.0951551 0.0546846 0.0422363 0.0356924 0.0307263 0.0275209 0.025052 0.0215386 0.0189348 0.017153 0.0162867 0.0155652 0.0149767 0.0141066 0.0133307 0.0127832 0.0120458 0.0114038 0.0110621 0.0107037 0.0101508 0.00967969 0.00943375 0.00933691 0.00938908 0.00938099 0.00906081 0.00880765 0.00853493 0.008176 0.00775502 0.00740444 0.0071641 0.00697182 0.00683707 0.00673367 0.00655161 0.00634899 0.00618694 0.00603139 0.00590029 0.00559336 0.00534139 0.00525674 0.00502542 0.00467526 0.00432452 0.00410309 0.00386823 0.00361569 0.0034915 0.00341522 0.00337847 0.00326579 0.00322468 0.00316561 0.00298309 0.00286528 0.00275265 0.00257471 0.0024261 0.00228763 0.00213546 0.00197371 0.00184467 0.00173739 0.00163101 0.00147645 0.00134094 0.0012493 0.00119009 0.00113915 0.00106924 0.0010156 0.000960945 0.00091975 0.000900414 0.00085156 0.000814109 0.000790208 0.000743312 0.000711476 0.00068715 0.000659524 0.000636587 0.000615638 0.000589143 0.000558631 0.000544556 0.000535779 0.000522786 0.00050974 0.000492843 0.000471079 0.00046676 0.000490218 0.000517443 0.000525863
285.54 0.00025 1.7572 0.290313 0.0951938 0.0546628 0.04214 0.0356531 0.0307082 0.0274937 0.0250353 0.0215394 0.0189294 0.0171159 0.0162415 0.0155392 0.014953 0.0140884 0.013325 0.0127837 0.0120526 0.0114068 0.0110674 0.0107299 0.010169 0.00968808 0.0094533 0.00935415 0.00938795 0.00939191 0.00906976 0.00882575 0.0085514 0.00818278 0.00775487 0.00739784 0.0071598 0.00696672 0.00683032 0.00672806 0.00655363 0.00635298 0.00619428 0.0060257 0.00588719 0.00558762 0.00533234 0.00524601 0.0050206 0.00467669 0.00432261 0.0040986 0.00386716 0.0036171 0.00349519 0.00341454 0.00337312 0.00325956 0.0032172 0.00316016 0.00297748 0.00285887 0.00274895 0.00257435 0.00242837 0.00228964 0.0021352 0.0019737 0.00184578 0.00173789 0.0016328 0.00148058 0.00134329 0.00125044 0.00119049 0.00113963 0.00106981 0.00101608 0.000961153 0.000919597 0.000900333 0.000851813 0.000813576 0.000789502 0.000742997 0.000711081 0.0006866 0.000659152 0.000636351 0.000615329 0.000589077 0.000558904 0.000544494 0.000535615 0.000522666 0.000509596 0.000492691 0.000471104 0.000466657 0.000490053 0.00051704 0.00052526
285.5425 0.00025 1.7571 0.290278 0.0952459 0.05465 0.042043 0.0355994 0.0306638 0.0274522 0.025002 0.0215461 0.0189239 0.0170748 0.0161981 0.0155134 0.0149245 0.0140748 0.0133213 0.0127762 0.0120584 0.0114094 0.0110697 0.010754 0.0101866 0.00969914 0.00947207 0.00937246 0.00938552 0.00940158 0.00907929 0.00883946 0.00856601 0.00818875 0.00775649 0.00739462 0.0071564 0.00696126 0.00682246 0.00672276 0.00655543 0.00635826 0.00620013 0.00601775 0.00587354 0.00558226 0.0053241 0.00523363 0.00501607 0.00467805 0.00432209 0.00409444 0.0038664 0.00362048 0.00349959 0.00341411 0.0033674 0.00325389 0.00321022 0.00315574 0.00297438 0.00285181 0.00274313 0.0025743 0.00243096 0.00229139 0.0021354 0.00197381 0.00184661 0.0017392 0.00163424 0.00148484 0.00134612 0.00125187 0.00119086 0.00114019 0.00107028 0.00101657 0.000961384 0.000919471 0.000900278 0.000852 0.000813032 0.000788803 0.000742755 0.000710762 0.000686058 0.000658738 0.000635983 0.000614892 0.000589006 0.000559097 0.000544473 0.000535458 0.000522535 0.000509467 0.00049255 0.000471192 0.000466546 0.000489885 0.000516655 0.000524685
285.545 0.00025 1.75696 0.289946 0.095268 0.0546557 0.0419596 0.0355457 0.0306382 0.0274278 0.0249694 0.0215432 0.0189175 0.0170403 0.0161541 0.0154807 0.0148949 0.0140659 0.0133097 0.0127672 0.0120639 0.0114094 0.011069 0.0107785 0.0102065 0.0097108 0.00949158 0.00938883 0.00938563 0.00940923 0.00909119 0.00885553 0.00858311 0.00819371 0.00776028 0.00739089 0.00715347 0.00695815 0.00681469 0.00671865 0.00655543 0.00636385 0.00620666 0.00601044 0.00585985 0.00557755 0.00531751 0.00522091 0.0050095 0.0046796 0.00432124 0.00408998 0.00386532 0.00362204 0.00350331 0.00341353 0.00336184 0.00324738 0.00320493 0.00315202 0.00296968 0.00284363 0.00273697 0.00257389 0.00243327 0.00229362 0.00213597 0.00197473 0.00184758 0.00173946 0.00163584 0.00148885 0.00134896 0.00125254 0.00119108 0.00114067 0.00107094 0.00101704 0.000961886 0.000919417 0.000900043 0.000852168 0.000812666 0.000788075 0.000742482 0.00071041 0.000685523 0.000658286 0.00063567 0.000614473 0.000588908 0.00055935 0.000544407 0.000535314 0.000522415 0.000509338 0.000492385 0.000471262 0.000466498 0.00048966 0.000516284 0.00052413
285.5475 0.00025 1.75679 0.290128 0.0953784 0.0546404 0.041884 0.0354766 0.0305991 0.0274052 0.0249284 0.0215409 0.0189191 0.0170064 0.0161161 0.0154518 0.014871 0.0140572 0.0133058 0.0127559 0.0120695 0.0114146 0.0110667 0.0107989 0.010226 0.00972208 0.00950811 0.00940563 0.00938197 0.00941227 0.00910597 0.00887278 0.00859413 0.00819926 0.00776553 0.00738972 0.00715148 0.00695436 0.0068091 0.00671409 0.006555 0.00636921 0.00621372 0.00600311 0.00584458 0.00557338 0.00531207 0.0052076 0.00500271 0.00468142 0.00432021 0.00408513 0.00386489 0.00362395 0.00350671 0.00341289 0.0033561 0.0032419 0.00319838 0.00314721 0.00296542 0.00283622 0.0027306 0.00257295 0.00243482 0.00229619 0.00213718 0.00197478 0.00184851 0.00173956 0.00163682 0.00149294 0.00135218 0.00125336 0.00119145 0.00114121 0.00107153 0.00101739 0.000962197 0.000919244 0.000899884 0.00085236 0.000812219 0.000787476 0.000742218 0.000710064 0.000684991 0.000657894 0.000635328 0.000614047 0.000588768 0.000559711 0.00054436 0.000535175 0.000522303 0.000509231 0.000492223 0.000471297 0.000466454 0.000489464 0.000515892 0.000523528
285.55 0.00025 1.75661 0.290513 0.0954176 0.0546345 0.0418027 0.0354161 0.0305597 0.0273864 0.0248896 0.021542 0.0189125 0.0169722 0.0160781 0.0154216 0.0148381 0.014047 0.0132987 0.01274 0.0120756 0.0114188 0.0110673 0.0108191 0.0102473 0.00973452 0.00952349 0.00942166 0.00937757 0.00941527 0.00911921 0.00889369 0.00860903 0.00820735 0.0077722 0.00739063 0.00714748 0.00694904 0.0068014 0.00670795 0.0065552 0.00637522 0.0062211 0.00599644 0.00582949 0.005569 0.00530684 0.0051958 0.00499538 0.0046832 0.00431895 0.00408037 0.00386317 0.00362575 0.00350991 0.00341265 0.00335048 0.00323554 0.00319248 0.00314172 0.00296123 0.00282851 0.00272264 0.00257224 0.00243617 0.00229861 0.00213697 0.00197545 0.00184948 0.00173902 0.00163767 0.00149708 0.00135557 0.00125454 0.00119161 0.00114164 0.00107226 0.00101778 0.000962411 0.000919167 0.000899668 0.000852596 0.000811756 0.00078681 0.00074192 0.00070974 0.000684434 0.000657487 0.000635079 0.000613548 0.000588626 0.000559969 0.000544359 0.000535089 0.00052217 0.000509084 0.00049206 0.000471313 0.000466365 0.000489252 0.000515488 0.000522969
285.5525 0.00025 1.7564 0.290273 0.0954569 0.0546613 0.0417276 0.0353497 0.0305302 0.0273565 0.0248407 0.0215445 0.018917 0.0169467 0.0160403 0.0153913 0.0148056 0.0140356 0.0132962 0.012726 0.0120836 0.0114196 0.0110608 0.0108369 0.0102707 0.00974878 0.00953824 0.00943697 0.0093731 0.00941537 0.0091347 0.00890965 0.00861767 0.00821185 0.00777903 0.00739367 0.00714562 0.00694611 0.00679554 0.00670101 0.00655504 0.00638106 0.00622918 0.00598907 0.0058115 0.00556427 0.0053025 0.005184 0.00498722 0.00468404 0.00431941 0.0040756 0.00386214 0.00362738 0.00351299 0.00341171 0.00334506 0.00322937 0.00318577 0.00313682 0.00295889 0.00282135 0.00271586 0.00257045 0.00243759 0.00230127 0.00213748 0.00197563 0.00185037 0.00173932 0.00163834 0.00150084 0.0013593 0.0012558 0.00119216 0.00114211 0.00107292 0.00101821 0.000962559 0.000919272 0.000899525 0.000852848 0.000811332 0.000786124 0.000741633 0.000709423 0.000683945 0.000657141 0.000634791 0.000613076 0.000588441 0.000560206 0.000544348 0.000535004 0.000522062 0.000508944 0.000491883 0.000471386 0.000466278 0.000489097 0.000515109 0.00052241
285.555 0.00025 1.75616 0.290386 0.0955678 0.0546784 0.0416627 0.0352828 0.0304819 0.0273323 0.0247765 0.0215369 0.0189275 0.0169217 0.0160057 0.0153618 0.0147699 0.0140241 0.0132905 0.0127051 0.0120935 0.0114206 0.0110578 0.0108519 0.0102927 0.00976575 0.00955272 0.00945053 0.00936912 0.00941926 0.00914986 0.00892736 0.00862757 0.00821671 0.00778726 0.00739932 0.00714528 0.00694211 0.00679168 0.00669457 0.00655426 0.00638692 0.00623586 0.00598379 0.00579644 0.00555906 0.00529886 0.00517112 0.0049774 0.00468512 0.00431989 0.00407098 0.00386017 0.00362961 0.00351619 0.0034109 0.00333933 0.00322446 0.00317941 0.00313098 0.00295467 0.00281468 0.00270876 0.00256833 0.00243807 0.00230382 0.00213836 0.001976 0.00185142 0.00173954 0.00163859 0.00150435 0.00136314 0.00125689 0.00119257 0.00114256 0.00107373 0.00101864 0.000962881 0.0009192 0.000899257 0.000853117 0.000811036 0.000785443 0.000741408 0.000709079 0.000683377 0.000656673 0.000634475 0.000612626 0.000588272 0.000560436 0.000544334 0.000534879 0.000522001 0.000508893 0.000491705 0.000471383 0.000466199 0.000488981 0.000514752 0.000521859
285.5575 0.00025 1.7559 0.290267 0.0956065 0.0546996 0.0416072 0.0352123 0.0304363 0.0273079 0.0247132 0.0215346 0.0189359 0.0169016 0.015972 0.0153327 0.0147377 0.0140106 0.0132895 0.0126899 0.0120991 0.011424 0.0110475 0.0108623 0.0103083 0.00978705 0.00956704 0.00946058 0.00936319 0.00941696 0.00916512 0.00894105 0.00863368 0.0082209 0.00779561 0.00740743 0.00714518 0.00694079 0.00678777 0.00668759 0.00655247 0.00639247 0.00624312 0.00597761 0.00577717 0.00555463 0.00529704 0.00515887 0.00496809 0.00468499 0.00432076 0.00406679 0.00385823 0.00363055 0.00351899 0.00341026 0.00333404 0.00321882 0.00317335 0.00312481 0.00295157 0.00280731 0.00270106 0.0025665 0.00243981 0.00230695 0.00213929 0.00197597 0.00185326 0.00173881 0.00163854 0.0015078 0.00136716 0.00125857 0.00119269 0.00114293 0.0010745 0.00101912 0.000963185 0.000919127 0.000898924 0.000853308 0.00081087 0.000784782 0.000741111 0.000708765 0.000682841 0.000656201 0.000634165 0.000612207 0.000588028 0.00056071 0.000544309 0.000534769 0.00052191 0.000508765 0.00049151 0.000471372 0.0004662 0.000488804 0.000514386 0.000521314
285.56 0.00025 1.75561 0.290034 0.0957206 0.0547639 0.0415552 0.0351502 0.0304002 0.0272803 0.024651 0.0215277 0.0189394 0.0168843 0.0159421 0.0153058 0.014701 0.014 0.0132903 0.0126803 0.012104 0.0114249 0.0110428 0.010867 0.0103269 0.00980852 0.00958264 0.00946621 0.00936461 0.0094161 0.0091802 0.0089579 0.00864002 0.00822666 0.00780466 0.00741566 0.00714536 0.00693675 0.00678442 0.00667944 0.00655039 0.0063977 0.00625026 0.00597229 0.00576043 0.00554806 0.00529641 0.0051471 0.00495814 0.00468414 0.00432114 0.00406288 0.00385682 0.00363146 0.00352085 0.00340926 0.00332847 0.00321382 0.00316671 0.00311814 0.00294799 0.00280049 0.00269351 0.00256466 0.00243987 0.00230931 0.00214074 0.001976 0.00185481 0.00173956 0.0016398 0.00151077 0.00137113 0.00126001 0.0011932 0.00114337 0.00107524 0.00101961 0.000963389 0.000919064 0.000898632 0.000853567 0.00081058 0.000784125 0.000740817 0.000708413 0.000682304 0.000655761 0.000633831 0.000611785 0.00058775 0.00056092 0.000544367 0.00053467 0.000521822 0.000508626 0.000491336 0.000471352 0.000466159 0.00048864 0.000514022 0.000520777
285.5625 0.00025 1.75529 0.289808 0.0958184 0.0548014 0.0415034 0.0350698 0.0303605 0.0272584 0.024582 0.0215303 0.0189484 0.0168761 0.0159131 0.0152741 0.0146668 0.0139842 0.0132914 0.0126674 0.0121071 0.0114251 0.011036 0.010874 0.0103483 0.00983118 0.00959967 0.00947342 0.0093559 0.00941455 0.00919744 0.00896844 0.00864456 0.00823003 0.0078145 0.00742662 0.00714756 0.00693537 0.00678437 0.00667319 0.00654692 0.00640277 0.00625755 0.00596706 0.00574359 0.00554108 0.00529494 0.00513569 0.00494735 0.00468312 0.00432198 0.00405885 0.00385473 0.00363334 0.0035231 0.00340827 0.00332297 0.00320913 0.00316033 0.00311365 0.00294521 0.00279455 0.00268622 0.00256223 0.00243963 0.00231194 0.00214239 0.0019762 0.00185638 0.00173989 0.00163974 0.00151389 0.0013757 0.0012622 0.00119337 0.00114376 0.00107606 0.00102018 0.0009637 0.000919004 0.000898206 0.000853687 0.00081038 0.000783542 0.000740576 0.000708069 0.000681728 0.000655299 0.00063342 0.00061144 0.000587498 0.000561091 0.000544358 0.000534613 0.000521734 0.000508513 0.000491139 0.000471361 0.000466087 0.000488473 0.000513713 0.000520235
285.565 0.00025 1.75495 0.289852 0.0958404 0.0548489 0.0414715 0.0349831 0.0303084 0.027233 0.0245198 0.0215281 0.0189597 0.0168755 0.0158894 0.0152494 0.0146341 0.0139656 0.0132898 0.0126564 0.0121058 0.0114245 0.0110278 0.0108788 0.010366 0.00985351 0.00961621 0.00947724 0.00934382 0.00941262 0.00921554 0.00898178 0.00864701 0.00823522 0.00782578 0.00743802 0.00715025 0.00693418 0.00678538 0.00666571 0.00654344 0.00640702 0.00626453 0.00596274 0.00572635 0.00553316 0.00529417 0.00512401 0.00493662 0.0046804 0.00432198 0.00405608 0.00385256 0.00363406 0.00352498 0.00340795 0.00331766 0.00320383 0.00315351 0.00310735 0.00294225 0.00278902 0.00267841 0.00255984 0.00243952 0.00231467 0.00214385 0.00197656 0.00185804 0.00173951 0.00163868 0.00151637 0.00137995 0.00126423 0.00119351 0.00114387 0.0010768 0.00102082 0.000964002 0.000919091 0.000897772 0.000853894 0.000810204 0.000782932 0.000740311 0.000707879 0.000681132 0.000654879 0.000633137 0.000611018 0.000587201 0.000561288 0.000544378 0.000534531 0.000521643 0.00050843 0.000490944 0.000471348 0.000466083 0.00048833 0.000513382 0.000519663
285.5675 0.00025 1.75457 0.289819 0.0958123 0.0549125 0.0414523 0.0349034 0.0302527 0.0271985 0.0244462 0.0215221 0.018973 0.0168765 0.01587 0.0152223 0.01461 0.0139502 0.013296 0.0126473 0.0120989 0.0114206 0.0110211 0.0108797 0.0103783 0.00988116 0.00963532 0.00948042 0.00933743 0.00940876 0.00923538 0.00899161 0.00864949 0.00823889 0.00783615 0.00745264 0.00715392 0.0069349 0.00678666 0.0066586 0.00654002 0.00641015 0.00627025 0.00595921 0.00571138 0.00552521 0.00529434 0.00511316 0.00492584 0.00467727 0.00432231 0.0040536 0.00385117 0.00363483 0.00352658 0.00340719 0.0033125 0.00319867 0.00314754 0.0030999 0.00293866 0.00278299 0.00267189 0.00255588 0.00243794 0.00231656 0.00214563 0.00197686 0.00185942 0.00173987 0.00163905 0.00151913 0.00138489 0.00126652 0.00119347 0.00114403 0.00107776 0.00102153 0.000964468 0.00091916 0.000897549 0.000854002 0.000809968 0.000782392 0.000740036 0.000707525 0.000680589 0.000654333 0.000632827 0.000610714 0.000586896 0.000561559 0.000544394 0.000534444 0.000521558 0.000508292 0.000490745 0.000471346 0.000466064 0.000488188 0.000513104 0.000519113