285.5025 0.00025 1.75076 0.287955 0.0938109 0.0543762 0.0422367 0.0352434 0.0302204 0.0271497 0.0244083 0.0211523 0.0189391 0.0176503 0.0166103 0.0156739 0.0150932 0.0140888 0.0132142 0.0125632 0.0118094 0.011123 0.0108569 0.0103983 0.009919 0.00948392 0.00921394 0.00909682 0.00909447 0.00897879 0.00873228 0.0085527 0.00830114 0.0080725 0.00776071 0.00745696 0.00724628 0.00703567 0.00685501 0.00667742 0.00646191 0.00625136 0.00610313 0.00601018 0.00594007 0.00567712 0.00550268 0.00528099 0.00497076 0.00462473 0.00427927 0.00406085 0.00382536 0.00357056 0.00343259 0.00340405 0.0034405 0.00336595 0.00330858 0.00319903 0.00303951 0.00292136 0.00274965 0.002537 0.00237379 0.00223339 0.00211601 0.00194729 0.00180345 0.0017089 0.00157919 0.00142081 0.00131059 0.00123519 0.00118496 0.00113244 0.00106246 0.00100363 0.000954143 0.000918794 0.000893065 0.000850821 0.000827932 0.000800108 0.000749896 0.000719418 0.000695702 0.000667548 0.000642522 0.000619182 0.000590171 0.000560216 0.000548801 0.000540581 0.000528608 0.000515901 0.000498378 0.000474739 0.000472949 0.000497447 0.000527802 0.000531642
285.505 0.00025 1.75129 0.28809 0.0938465 0.0543255 0.0422094 0.0352059 0.030207 0.0271342 0.0244354 0.0211473 0.0189047 0.0176052 0.0165891 0.0156533 0.0150714 0.0140752 0.0132136 0.0125834 0.0118263 0.011146 0.0108726 0.0104159 0.00992485 0.00947847 0.0092192 0.00911266 0.00912709 0.0090065 0.00875263 0.00855834 0.00829939 0.0080645 0.00775363 0.00745014 0.00723406 0.00702419 0.0068548 0.00667928 0.00646141 0.00625098 0.00609919 0.00601065 0.00593649 0.00566247 0.00548403 0.00527607 0.00497045 0.00462273 0.00428091 0.00406576 0.00382791 0.00357179 0.00343355 0.00340341 0.00343607 0.00335799 0.00330221 0.00319426 0.00303184 0.00291871 0.00274981 0.00253627 0.00237359 0.00223487 0.00211531 0.00194891 0.0018058 0.00171004 0.00158213 0.00142302 0.00131232 0.00123564 0.00118492 0.00113274 0.00106306 0.00100481 0.000954512 0.00091868 0.000893374 0.000850479 0.000827019 0.000799644 0.000749598 0.000719037 0.000695163 0.000667099 0.000642386 0.000619153 0.000590248 0.000560193 0.000548608 0.000540412 0.000528459 0.000515825 0.000498364 0.00047477 0.000472776 0.00049712 0.000527271 0.000530995
285.5075 0.00025 1.7518 0.288389 0.0937946 0.0542846 0.0421775 0.0351682 0.0301891 0.0271287 0.0244609 0.0211469 0.0188628 0.0175636 0.0165696 0.0156337 0.0150513 0.0140618 0.0132136 0.0125971 0.0118485 0.0111635 0.010883 0.0104326 0.00993285 0.0094767 0.00922439 0.00912556 0.00916045 0.00903784 0.00877715 0.00856254 0.00829676 0.00806045 0.00774342 0.00744295 0.00722102 0.00701201 0.00684853 0.00667925 0.0064611 0.00625013 0.00609574 0.00600877 0.00593461 0.00564704 0.00546254 0.00527243 0.00496888 0.0046208 0.00428356 0.00406933 0.00382997 0.00357347 0.00343385 0.00340352 0.0034317 0.00335177 0.00329735 0.0031908 0.00302298 0.0029163 0.0027497 0.00253549 0.00237376 0.00223711 0.00211466 0.00194962 0.00180835 0.00171108 0.00158487 0.00142555 0.00131382 0.00123611 0.0011849 0.001133 0.00106352 0.00100596 0.000954725 0.000918494 0.000893699 0.000850231 0.000825981 0.000799156 0.000749299 0.000718637 0.000694687 0.000666708 0.000642152 0.000619105 0.000590233 0.000560162 0.00054855 0.000540257 0.000528302 0.000515722 0.000498323 0.000474755 0.000472564 0.000496781 0.000526773 0.000530427
285.51 0.00025 1.7523 0.288412 0.0937526 0.054236 0.0421492 0.0351457 0.0301772 0.0271131 0.0244826 0.0211403 0.0188323 0.0175166 0.0165459 0.0156163 0.0150305 0.0140533 0.0132106 0.0126112 0.0118688 0.0111826 0.0108969 0.0104493 0.0099398 0.00947259 0.00922845 0.00913767 0.00918848 0.00906736 0.00879957 0.00857032 0.00829665 0.00805411 0.00773578 0.00743736 0.00721149 0.00699939 0.00684447 0.00667993 0.00646457 0.00624963 0.00609534 0.00600883 0.00593094 0.00563324 0.00544283 0.00526775 0.00496881 0.00461821 0.00428499 0.0040726 0.0038317 0.00357519 0.00343535 0.00340357 0.00342615 0.00334408 0.00329142 0.00318687 0.00301598 0.00291216 0.00275028 0.00253521 0.00237409 0.00223882 0.00211428 0.00195013 0.00181014 0.00171232 0.00158748 0.00142785 0.00131557 0.00123676 0.00118489 0.00113322 0.00106397 0.00100694 0.000954979 0.000918176 0.000894008 0.000850088 0.000824898 0.000798735 0.000748986 0.000718196 0.000694118 0.000666225 0.000641839 0.000618957 0.000590315 0.000560194 0.000548366 0.000540119 0.000528187 0.000515627 0.000498283 0.000474766 0.000472326 0.000496439 0.00052626 0.000529787
285.5125 0.00025 1.75276 0.288446 0.0937085 0.0542016 0.0421042 0.035125 0.0301661 0.0270955 0.0245002 0.021143 0.0188042 0.0174722 0.0165235 0.0155952 0.0150082 0.0140488 0.0132089 0.0126202 0.0118826 0.0112011 0.0109042 0.0104637 0.00994825 0.00947895 0.00923487 0.00914776 0.00921589 0.00909998 0.00882317 0.00857549 0.00829707 0.00804902 0.00772954 0.00743075 0.00720073 0.00698822 0.00683819 0.00667879 0.00646615 0.00625088 0.00609397 0.00600599 0.00592575 0.00561921 0.00542237 0.00526271 0.00496788 0.00461664 0.00428561 0.00407492 0.0038339 0.00357744 0.00343685 0.00340283 0.00342173 0.00333708 0.00328636 0.00318349 0.00300908 0.00290896 0.00274986 0.00253599 0.00237419 0.00224054 0.00211358 0.00195119 0.00181202 0.00171367 0.00159045 0.00143037 0.00131699 0.0012373 0.00118498 0.00113347 0.00106441 0.00100798 0.000955441 0.000917999 0.000894248 0.000849911 0.000823986 0.000798317 0.000748744 0.000717811 0.000693709 0.000665825 0.000641538 0.000618857 0.000590309 0.000560209 0.000548212 0.00054 0.000528052 0.00051553 0.000498268 0.00047476 0.000472101 0.000496101 0.000525865 0.000529174
285.515 0.00025 1.75318 0.288677 0.0937308 0.0541451 0.0420342 0.0351015 0.0301705 0.0270955 0.0245083 0.0211451 0.0187822 0.0174198 0.0164893 0.0155763 0.0149821 0.0140433 0.0132133 0.0126244 0.0118968 0.0112173 0.0109115 0.010483 0.00996077 0.00948512 0.00923977 0.00915734 0.00923737 0.00913049 0.00884523 0.00857903 0.00830123 0.00804679 0.0077202 0.0074239 0.00719072 0.00697913 0.00683136 0.00668059 0.00646604 0.00625196 0.00609221 0.00600365 0.00592135 0.00560661 0.00540417 0.00525798 0.00496827 0.00461503 0.00428649 0.00407843 0.00383616 0.00357895 0.00343913 0.00340217 0.00341657 0.00332999 0.00328149 0.0031806 0.00300223 0.00290372 0.00274927 0.00253617 0.00237486 0.00224257 0.00211303 0.00195146 0.0018139 0.00171514 0.0015932 0.00143288 0.00131842 0.00123792 0.0011854 0.00113393 0.00106485 0.00100884 0.000955815 0.000917792 0.000894444 0.000849884 0.000823097 0.000797749 0.000748448 0.000717388 0.000693292 0.000665363 0.000641245 0.000618713 0.000590357 0.00056022 0.000548063 0.000539818 0.000527909 0.000515419 0.000498211 0.000474765 0.000471874 0.000495813 0.000525383 0.000528563
285.5175 0.00025 1.75357 0.288922 0.0937519 0.0540972 0.0419748 0.0350845 0.030173 0.0270742 0.0245288 0.0211464 0.0187628 0.0173664 0.0164583 0.0155544 0.0149639 0.0140339 0.0132053 0.0126264 0.0119055 0.0112384 0.0109201 0.0104945 0.00997137 0.00949037 0.00924719 0.00916721 0.00925458 0.00916043 0.0088678 0.00858763 0.00830711 0.00804417 0.0077088 0.00741536 0.0071826 0.00696936 0.00682232 0.0066786 0.00646636 0.00625357 0.00609169 0.00599981 0.00591548 0.00559486 0.00538585 0.00525174 0.00496722 0.00461337 0.00428768 0.00407928 0.0038383 0.00358029 0.00344212 0.00340201 0.00341289 0.00332282 0.00327608 0.00317561 0.0029971 0.00289851 0.00274851 0.00253619 0.00237521 0.00224471 0.00211267 0.00195148 0.00181652 0.00171642 0.0015957 0.00143551 0.00131972 0.0012391 0.00118549 0.00113422 0.00106521 0.00100967 0.000956151 0.000917542 0.000894747 0.000849795 0.000822211 0.000797361 0.000748158 0.000716982 0.000692775 0.000665005 0.000641014 0.000618515 0.000590449 0.000560255 0.000547902 0.000539716 0.000527781 0.000515292 0.000498153 0.000474777 0.000471732 0.000495498 0.000524938 0.000527942
285.52 0.00025 1.75392 0.289377 0.0937901 0.0540547 0.041926 0.0350713 0.0301773 0.0270799 0.0245446 0.0211457 0.0187472 0.0173167 0.0164228 0.0155376 0.0149419 0.0140312 0.0132075 0.01263 0.0119136 0.0112588 0.0109285 0.0105061 0.00998376 0.00949933 0.00925161 0.00917522 0.00926998 0.00918787 0.00888685 0.00859479 0.00831748 0.00804214 0.00770109 0.00740871 0.00717522 0.0069592 0.00681333 0.00667744 0.00646687 0.00625558 0.00609206 0.00599597 0.0059107 0.00558391 0.00536757 0.00524399 0.00496708 0.00461114 0.00428621 0.0040799 0.00383925 0.00358197 0.00344455 0.00340191 0.00340737 0.00331525 0.00327007 0.00317174 0.00298967 0.00289298 0.00274775 0.00253645 0.00237544 0.00224595 0.00211191 0.00195202 0.00181814 0.00171766 0.00159854 0.00143837 0.00132094 0.00123976 0.00118561 0.00113458 0.00106548 0.00101052 0.000956708 0.000917319 0.000894991 0.00084983 0.000821471 0.000796764 0.00074783 0.000716577 0.000692211 0.000664512 0.000640916 0.000618303 0.000590462 0.000560302 0.000547751 0.000539575 0.000527626 0.000515208 0.000498084 0.000474797 0.000471531 0.000495187 0.000524455 0.00052735
285.5225 0.00025 1.75422 0.289496 0.0938454 0.0540197 0.0418493 0.0350602 0.0301842 0.0270607 0.0245526 0.0211452 0.0187357 0.0172655 0.0163913 0.0155178 0.0149258 0.0140238 0.013205 0.0126284 0.0119197 0.0112789 0.0109362 0.0105183 0.00999859 0.00951233 0.00925822 0.00918388 0.00928298 0.0092142 0.00890467 0.00860628 0.0083273 0.00804128 0.00769291 0.00740102 0.00716433 0.0069496 0.00680445 0.00667555 0.00646635 0.00625749 0.00609486 0.00599377 0.00590345 0.00557312 0.00535104 0.00523657 0.00496703 0.00461067 0.00428546 0.00408036 0.00384004 0.00358351 0.00344727 0.00340151 0.00340263 0.00330785 0.00326246 0.00316874 0.00298426 0.00288686 0.0027459 0.00253731 0.00237729 0.00224723 0.0021118 0.00195165 0.0018199 0.00171884 0.00160089 0.00144134 0.00132242 0.00124056 0.00118582 0.00113515 0.00106604 0.00101139 0.000957257 0.000917209 0.000895184 0.000849838 0.000820569 0.000796242 0.000747612 0.000716214 0.000691685 0.000664078 0.000640568 0.000618123 0.000590507 0.000560358 0.0005476 0.000539411 0.000527462 0.000515093 0.000498005 0.000474821 0.000471335 0.000494883 0.000523976 0.00052672
285.525 0.00025 1.75446 0.28952 0.0938625 0.0539617 0.0417637 0.0350676 0.030176 0.0270389 0.024556 0.021143 0.018718 0.0172162 0.0163514 0.0154949 0.0149065 0.0140183 0.0132108 0.0126284 0.0119216 0.011295 0.0109477 0.0105296 0.0100115 0.00952571 0.00927046 0.00919108 0.00929206 0.00923655 0.00892308 0.00861562 0.00833838 0.00804119 0.00768185 0.00739211 0.00715709 0.00693966 0.00679641 0.00667359 0.00646743 0.00626182 0.0060973 0.00599032 0.00589541 0.00556342 0.00533549 0.00522909 0.00496638 0.00460913 0.00428414 0.00407999 0.00384277 0.00358456 0.00345022 0.0034012 0.00339621 0.00330061 0.00325628 0.00316431 0.00297795 0.00288018 0.00274375 0.00253766 0.00237756 0.00224849 0.00211215 0.00195161 0.0018211 0.00172013 0.0016033 0.00144415 0.00132371 0.0012413 0.00118604 0.00113555 0.00106638 0.00101206 0.000957649 0.000916982 0.000895414 0.000849815 0.000819845 0.000795733 0.00074735 0.000715781 0.000691162 0.000663614 0.000640219 0.000617845 0.000590496 0.00056043 0.00054747 0.000539249 0.000527304 0.000514957 0.000497937 0.000474837 0.00047115 0.000494581 0.000523498 0.000526158
285.5275 0.00025 1.75464 0.289158 0.0939318 0.0538869 0.0416998 0.035054 0.0301899 0.0270197 0.0245683 0.0211401 0.0187087 0.0171677 0.0163042 0.0154734 0.0148897 0.0140118 0.0132105 0.0126257 0.0119201 0.0113076 0.0109578 0.0105386 0.0100249 0.00953782 0.00928044 0.0092023 0.00930528 0.00926119 0.00893669 0.00862795 0.00835058 0.00804277 0.00767539 0.00738445 0.0071506 0.00693209 0.00678663 0.00667004 0.0064694 0.0062649 0.00610108 0.00598619 0.00588635 0.00555516 0.00532155 0.0052211 0.0049639 0.00460938 0.00428297 0.00407951 0.00384322 0.00358748 0.00345413 0.00340157 0.00339106 0.003293 0.00324958 0.00316086 0.00297372 0.00287328 0.00274141 0.0025386 0.00237905 0.00224952 0.00211172 0.00195174 0.00182282 0.00172141 0.00160566 0.00144711 0.00132526 0.0012419 0.00118642 0.00113634 0.00106688 0.00101266 0.000958058 0.000916809 0.00089552 0.000849811 0.000819025 0.000795245 0.0007471 0.00071541 0.000690641 0.000663162 0.000639884 0.000617572 0.000590543 0.000560548 0.000547349 0.000539095 0.000527182 0.000514819 0.000497833 0.000474864 0.000470981 0.000494363 0.00052303 0.00052555
285.53 0.00025 1.75477 0.289423 0.093959 0.0538485 0.0416307 0.0350496 0.0301755 0.0269998 0.0245839 0.0211349 0.0186966 0.0171219 0.0162598 0.0154567 0.0148705 0.0140013 0.0132131 0.0126247 0.0119188 0.011321 0.0109658 0.0105558 0.0100387 0.00955004 0.00929545 0.00921489 0.00931041 0.00927828 0.00895108 0.00864273 0.00836687 0.00804654 0.00767037 0.00737579 0.00714212 0.00692274 0.00677855 0.00666677 0.00647032 0.00626933 0.00610403 0.00597897 0.0058769 0.00554829 0.00530673 0.00521248 0.00496303 0.00460914 0.00428146 0.00407716 0.0038435 0.00358915 0.00345817 0.00340121 0.0033857 0.00328674 0.00324287 0.00315754 0.00296955 0.00286565 0.00273871 0.00253921 0.00238023 0.00225047 0.0021116 0.00195233 0.00182393 0.00172272 0.00160784 0.00145049 0.00132641 0.0012425 0.00118672 0.00113671 0.00106738 0.00101332 0.000958461 0.000916868 0.000895628 0.000849846 0.000818338 0.000794736 0.000746847 0.000715074 0.000690158 0.000662711 0.000639547 0.000617251 0.000590579 0.000560621 0.000547273 0.000538989 0.000527077 0.00051469 0.000497733 0.00047489 0.000470819 0.000494074 0.000522583 0.000524934
285.5325 0.00025 1.75486 0.289769 0.0940347 0.0538025 0.0415489 0.0350275 0.0301592 0.026975 0.0245844 0.0211306 0.0186896 0.0170773 0.0162091 0.0154343 0.0148551 0.0139883 0.0132146 0.0126256 0.0119209 0.0113277 0.0109719 0.0105765 0.0100511 0.00956881 0.0093136 0.00923029 0.0093175 0.00929415 0.00896301 0.00866255 0.00838082 0.00805011 0.00766347 0.00736886 0.00713543 0.00691783 0.00676777 0.00666201 0.00647156 0.00627411 0.00610927 0.00597262 0.00586693 0.00553958 0.00529548 0.00520371 0.00496152 0.00460905 0.00427971 0.0040747 0.00384323 0.00359189 0.00346332 0.00340033 0.00337938 0.00327974 0.00323724 0.00315347 0.00296448 0.00285802 0.00273526 0.00253948 0.00238159 0.00225374 0.00211125 0.00195183 0.00182565 0.00172372 0.00161011 0.00145391 0.00132787 0.00124311 0.00118716 0.0011373 0.00106784 0.001014 0.000958916 0.000916643 0.000895769 0.000850088 0.000817705 0.000794094 0.000746589 0.000714741 0.00068965 0.000662229 0.000639193 0.000616907 0.000590557 0.000560759 0.000547175 0.000538813 0.000526919 0.000514589 0.000497615 0.000474918 0.000470705 0.00049378 0.000522152 0.000524313
285.535 0.00025 1.75489 0.289844 0.0940082 0.0537703 0.0414662 0.0349965 0.030128 0.0269622 0.0245804 0.0211366 0.018689 0.0170343 0.0161616 0.0154122 0.0148325 0.0139755 0.0132125 0.0126276 0.0119215 0.011331 0.0109831 0.0105904 0.0100656 0.00957928 0.00933194 0.00924385 0.0093189 0.00930825 0.00897288 0.00867689 0.00839831 0.00805735 0.00765846 0.00736115 0.00712854 0.00691077 0.00675993 0.00665713 0.00647304 0.00627942 0.00611447 0.00596531 0.00585535 0.00553209 0.00528351 0.00519375 0.00495915 0.00461102 0.00427815 0.00407247 0.00384285 0.00359441 0.00346728 0.00339983 0.0033735 0.00327271 0.00323139 0.00314881 0.00295919 0.00285025 0.00273144 0.0025394 0.00238312 0.00225432 0.0021108 0.00195218 0.00182655 0.00172442 0.00161203 0.00145723 0.00132949 0.00124412 0.00118758 0.00113792 0.00106832 0.00101465 0.000959532 0.000916485 0.000895857 0.000850301 0.000817027 0.00079352 0.000746365 0.000714339 0.000689133 0.000661872 0.000638857 0.000616684 0.000590509 0.000560904 0.000547059 0.000538692 0.000526782 0.000514458 0.000497492 0.000474945 0.00047057 0.000493506 0.000521779 0.000523767
285.5375 0.00025 1.75488 0.289872 0.0939309 0.0537608 0.0413939 0.0349732 0.0301095 0.0269393 0.0245787 0.0211362 0.018677 0.0169905 0.0161126 0.0153942 0.0148075 0.0139653 0.0132079 0.0126264 0.0119244 0.0113316 0.0109997 0.0106131 0.0100805 0.00959392 0.00935043 0.00926046 0.00931968 0.0093213 0.00898559 0.00869937 0.00841554 0.00806256 0.00765851 0.00735369 0.00712437 0.00690345 0.00675152 0.00665274 0.00647508 0.00628301 0.00611971 0.00595892 0.00584354 0.00552723 0.00527367 0.00518312 0.00495558 0.00461186 0.0042769 0.00406994 0.00384308 0.00359701 0.00347221 0.00339884 0.00336761 0.0032656 0.00322581 0.00314528 0.00295558 0.00284218 0.00272706 0.00253976 0.0023838 0.0022565 0.00211094 0.00195207 0.00182817 0.00172532 0.00161402 0.00146068 0.00133126 0.00124509 0.00118788 0.00113848 0.00106904 0.0010153 0.000959932 0.000916589 0.000895962 0.000850406 0.000816377 0.000792929 0.000746136 0.000714008 0.000688588 0.000661357 0.000638466 0.000616323 0.000590461 0.000561099 0.00054706 0.00053853 0.000526643 0.000514307 0.000497376 0.000474972 0.000470455 0.000493224 0.00052132 0.000523253
285.54 0.00025 1.75482 0.289877 0.0939794 0.0537406 0.041297 0.034934 0.0301107 0.0269225 0.0245726 0.0211405 0.018677 0.0169539 0.016064 0.015367 0.0147889 0.0139492 0.0132044 0.0126296 0.0119271 0.0113297 0.0110033 0.0106355 0.0100951 0.00960533 0.00937114 0.00927725 0.00931846 0.00933152 0.00899383 0.00871895 0.00843382 0.00807098 0.00765634 0.00734655 0.00711972 0.00689893 0.00674437 0.00664641 0.00647755 0.00628605 0.00612812 0.00595324 0.00583024 0.00552141 0.00526492 0.00517305 0.00495133 0.00461257 0.00427461 0.00406573 0.00384204 0.00359862 0.00347609 0.00339824 0.00336166 0.00325926 0.00321841 0.00314077 0.00295104 0.00283583 0.00272359 0.0025392 0.00238568 0.00225785 0.00211026 0.00195222 0.00182919 0.00172614 0.00161594 0.00146421 0.00133286 0.00124591 0.00118824 0.00113917 0.00106964 0.0010159 0.000960201 0.000916487 0.000895867 0.000850615 0.000815917 0.000792326 0.00074584 0.000713609 0.000688053 0.000660923 0.00063822 0.000616005 0.000590349 0.000561306 0.000546983 0.000538383 0.000526513 0.000514153 0.000497234 0.000474985 0.000470316 0.000493029 0.00052088 0.000522639
285.5425 0.00025 1.75472 0.289838 0.0940526 0.0537252 0.0411938 0.0348833 0.0300697 0.0268857 0.0245504 0.0211478 0.0186745 0.0169146 0.0160175 0.0153445 0.0147616 0.0139367 0.0132031 0.0126229 0.0119332 0.0113268 0.011004 0.0106586 0.0101095 0.0096177 0.00939058 0.00929401 0.00931467 0.00934122 0.00900223 0.00873425 0.0084505 0.00807846 0.00765759 0.00734348 0.00711656 0.00689356 0.00673717 0.00664153 0.00647989 0.00628988 0.0061343 0.00594526 0.00581634 0.00551589 0.00525763 0.00516121 0.00494752 0.00461397 0.00427339 0.00406222 0.00384208 0.00360234 0.00348079 0.00339761 0.00335521 0.00325275 0.00321153 0.00313718 0.00294817 0.00282872 0.00271835 0.00253917 0.00238757 0.00225882 0.00211014 0.0019522 0.00183033 0.00172763 0.00161741 0.00146784 0.00133506 0.00124709 0.00118865 0.00113977 0.00107023 0.00101657 0.000960537 0.000916425 0.000895758 0.000850773 0.000815392 0.00079171 0.000745617 0.000713319 0.00068749 0.000660472 0.00063786 0.000615559 0.000590223 0.00056141 0.00054695 0.000538243 0.000526375 0.000514014 0.000497098 0.000475083 0.000470173 0.000492817 0.000520457 0.000522067
285.545 0.00025 1.75458 0.289518 0.0940808 0.0537314 0.0411058 0.0348318 0.0300567 0.0268748 0.024528 0.0211462 0.0186731 0.0168823 0.0159677 0.0153141 0.014735 0.0139287 0.0131928 0.0126153 0.0119397 0.0113251 0.0110007 0.0106836 0.0101275 0.00963357 0.00941223 0.00931046 0.00931443 0.00934785 0.00901208 0.00875269 0.0084705 0.00808483 0.00766058 0.00734014 0.00711342 0.00689159 0.00672928 0.00663771 0.00648051 0.00629491 0.00614152 0.00593775 0.00580326 0.00551135 0.0052512 0.00514933 0.00494084 0.00461513 0.0042717 0.00405817 0.00384157 0.00360417 0.00348469 0.0033969 0.0033495 0.00324585 0.0032062 0.00313343 0.00294366 0.00282071 0.00271253 0.00253847 0.00238948 0.00226057 0.00211018 0.00195314 0.00183157 0.00172824 0.00161891 0.00147137 0.00133732 0.00124749 0.00118876 0.00114032 0.00107102 0.00101718 0.000961111 0.000916341 0.0008955 0.000850899 0.000815054 0.000791113 0.000745362 0.00071295 0.000686937 0.000659956 0.000637579 0.000615187 0.000590089 0.000561569 0.000546874 0.000538106 0.000526249 0.000513875 0.000496942 0.000475151 0.000470078 0.000492552 0.000520072 0.000521512
285.5475 0.00025 1.75441 0.2897 0.0942049 0.0537171 0.0410303 0.0347632 0.0300256 0.0268627 0.0244991 0.0211444 0.0186765 0.0168506 0.0159283 0.0152847 0.0147168 0.0139222 0.0131925 0.0126092 0.0119439 0.0113258 0.0109967 0.0107037 0.0101439 0.00964646 0.00943074 0.00932662 0.00930899 0.00934801 0.00902775 0.00877088 0.0084846 0.00809148 0.00766609 0.00733822 0.00711115 0.00688827 0.00672384 0.00663275 0.00647968 0.00629885 0.00614915 0.00593096 0.00578823 0.00550714 0.00524622 0.00513675 0.00493469 0.00461682 0.00427055 0.00405377 0.00384147 0.00360634 0.00348822 0.00339632 0.00334311 0.00324012 0.00319906 0.00312957 0.00293992 0.00281345 0.0027067 0.00253737 0.00239098 0.00226218 0.00211094 0.00195292 0.00183271 0.00172857 0.00161988 0.001475 0.00133976 0.00124816 0.0011892 0.00114103 0.00107166 0.00101762 0.000961545 0.000916183 0.000895326 0.00085103 0.000814579 0.000790642 0.000745106 0.00071261 0.000686398 0.000659533 0.00063722 0.000614786 0.000589903 0.000561878 0.000546804 0.000537982 0.000526128 0.000513776 0.000496784 0.000475178 0.000469993 0.000492303 0.000519653 0.000520899
285.55 0.00025 1.75424 0.290089 0.0942362 0.0537112 0.0409429 0.0347085 0.0299922 0.0268553 0.0244704 0.0211487 0.0186709 0.016816 0.0158859 0.0152542 0.0146878 0.0139127 0.0131884 0.0125992 0.0119514 0.0113247 0.0109968 0.0107247 0.010164 0.00966151 0.00944716 0.00934195 0.00930364 0.00935039 0.00903948 0.00879332 0.00850215 0.0081018 0.00767238 0.00733811 0.00710613 0.00688474 0.0067155 0.00662766 0.00647929 0.00630353 0.00615703 0.00592403 0.00577317 0.00550279 0.00524108 0.00512586 0.00492754 0.00461805 0.00426919 0.00404951 0.00383999 0.00360831 0.0034916 0.00339579 0.00333733 0.00323355 0.00319358 0.00312512 0.00293665 0.00280556 0.00269944 0.00253644 0.00239229 0.00226395 0.00211027 0.00195365 0.00183369 0.00172854 0.00162089 0.00147848 0.00134238 0.00124909 0.00118928 0.00114151 0.00107253 0.00101813 0.000961846 0.000916133 0.000895089 0.000851198 0.000814097 0.000790064 0.000744837 0.000712306 0.000685838 0.000659078 0.000636986 0.00061428 0.000589716 0.000562041 0.000546786 0.000537923 0.000525995 0.000513626 0.000496637 0.000475188 0.000469874 0.000492049 0.000519219 0.000520333
285.5525 0.00025 1.75403 0.289859 0.0942663 0.0537448 0.0408638 0.0346456 0.029969 0.0268337 0.0244274 0.0211504 0.0186785 0.0167913 0.0158477 0.0152221 0.0146574 0.013903 0.0131895 0.0125921 0.0119592 0.0113225 0.0109877 0.0107447 0.0101877 0.00967659 0.00946175 0.0093568 0.00929812 0.00934761 0.00905326 0.00881068 0.00851316 0.00810659 0.00767872 0.00734107 0.00710379 0.00688102 0.00670951 0.00662034 0.00647863 0.0063081 0.00616509 0.00591712 0.00575571 0.00549804 0.00523678 0.00511552 0.00492072 0.00461946 0.00426931 0.00404458 0.00383925 0.00361003 0.00349513 0.00339488 0.00333122 0.00322704 0.0031869 0.00312076 0.00293465 0.0027983 0.00269323 0.00253467 0.00239347 0.0022662 0.00211046 0.00195368 0.00183441 0.00172916 0.00162184 0.00148184 0.00134523 0.00124996 0.00118981 0.00114201 0.00107328 0.00101861 0.000962115 0.000916282 0.00089494 0.000851435 0.000813708 0.000789475 0.000744572 0.000711974 0.000685369 0.00065867 0.000636673 0.000613827 0.000589503 0.000562198 0.00054677 0.000537828 0.000525872 0.000513479 0.000496468 0.000475266 0.000469755 0.000491861 0.000518813 0.000519754
285.555 0.00025 1.75379 0.289954 0.094378 0.0537628 0.0407975 0.0345755 0.02992 0.0268202 0.024374 0.021142 0.0186874 0.0167629 0.0158108 0.0151915 0.0146259 0.0138924 0.0131862 0.0125764 0.0119701 0.0113218 0.0109836 0.0107587 0.0102096 0.00969612 0.00947738 0.00937073 0.0092933 0.00935017 0.00906389 0.00882997 0.0085256 0.00811336 0.00768674 0.00734553 0.0071022 0.00687812 0.00670609 0.00661354 0.00647793 0.00631295 0.00617201 0.00591254 0.00574138 0.00549241 0.00523384 0.00510364 0.00491148 0.00462019 0.00426974 0.00403993 0.00383756 0.00361243 0.00349838 0.00339407 0.00332507 0.00322187 0.00317992 0.00311613 0.00293078 0.00279162 0.00268706 0.00253287 0.00239397 0.0022681 0.00211078 0.00195378 0.00183561 0.00172944 0.00162205 0.00148509 0.00134848 0.00125055 0.00119006 0.00114253 0.0010741 0.00101908 0.000962666 0.000916246 0.000894665 0.000851646 0.000813404 0.000788863 0.00074441 0.0007116 0.000684808 0.000658175 0.00063636 0.000613373 0.000589312 0.000562348 0.00054673 0.000537712 0.000525809 0.000513408 0.000496291 0.000475259 0.000469644 0.000491717 0.000518398 0.000519228
285.5575 0.00025 1.75353 0.289838 0.0944108 0.0537834 0.0407385 0.0345037 0.0298779 0.0268079 0.0243193 0.0211366 0.0186918 0.0167407 0.0157726 0.0151621 0.0145987 0.0138782 0.0131912 0.0125684 0.011977 0.0113245 0.0109706 0.0107695 0.0102266 0.00972144 0.00949229 0.00938195 0.00928782 0.00934538 0.00907662 0.00884666 0.00853372 0.0081197 0.00769456 0.00735221 0.00710042 0.00687898 0.00670194 0.00660699 0.00647618 0.00631781 0.00617886 0.00590626 0.00572325 0.00548798 0.00523261 0.00509281 0.00490261 0.00462058 0.00426987 0.00403588 0.00383587 0.00361347 0.00350138 0.00339296 0.00331955 0.00321578 0.00317397 0.00311045 0.00292807 0.00278423 0.00267965 0.00253105 0.00239644 0.00227061 0.00211121 0.00195356 0.00183729 0.00172908 0.00162238 0.00148802 0.00135164 0.00125184 0.00119011 0.00114294 0.00107495 0.00101966 0.000963073 0.000916167 0.000894321 0.000851782 0.000813227 0.000788295 0.000744147 0.000711311 0.000684268 0.000657662 0.000636104 0.000612971 0.000589029 0.000562541 0.00054667 0.000537604 0.00052572 0.000513274 0.000496099 0.000475244 0.00046961 0.000491493 0.000518026 0.000518659
285.56 0.00025 1.75324 0.289608 0.0945205 0.0538552 0.0406781 0.034444 0.0298522 0.0267924 0.0242717 0.0211283 0.018696 0.0167199 0.0157419 0.0151334 0.0145648 0.0138701 0.0131937 0.0125652 0.0119828 0.0113236 0.0109646 0.0107763 0.0102458 0.00974484 0.00950705 0.00938712 0.00928942 0.00934343 0.00908698 0.00886436 0.00854222 0.00812846 0.00770423 0.00735979 0.00709915 0.006875 0.00669839 0.00659866 0.00647413 0.00632208 0.00618591 0.00590219 0.00570695 0.00548081 0.00523264 0.00508234 0.00489377 0.00461998 0.00426965 0.00403177 0.00383448 0.00361453 0.00350321 0.00339179 0.0033137 0.00321085 0.00316741 0.0031046 0.00292491 0.00277737 0.00267251 0.00252935 0.00239645 0.00227262 0.00211221 0.00195316 0.00183884 0.00172989 0.00162363 0.00149072 0.00135494 0.00125285 0.00119038 0.0011434 0.00107575 0.00102019 0.000963409 0.000916136 0.000894002 0.000852023 0.000812942 0.000787718 0.000743866 0.000710962 0.000683717 0.00065718 0.000635751 0.000612529 0.000588721 0.000562668 0.000546733 0.000537503 0.000525627 0.000513131 0.000495925 0.000475222 0.000469537 0.00049128 0.000517612 0.000518141
285.5625 0.00025 1.75292 0.289371 0.0946196 0.0538837 0.0406209 0.0343612 0.0298093 0.0267804 0.0242101 0.0211318 0.0187022 0.0167053 0.015711 0.015098 0.0145331 0.0138541 0.0131979 0.0125615 0.0119874 0.011324 0.0109572 0.0107833 0.0102702 0.00977045 0.00952321 0.00939702 0.00928128 0.00933889 0.00909891 0.00887566 0.00854944 0.0081325 0.00771488 0.00736956 0.00709893 0.00687347 0.00669833 0.00659402 0.00647057 0.00632636 0.00619259 0.00589759 0.00569131 0.00547324 0.00523142 0.00507297 0.00488318 0.00461932 0.00427058 0.0040275 0.00383216 0.00361658 0.00350581 0.00339048 0.00330807 0.00320578 0.00316129 0.00310025 0.00292225 0.00277101 0.00266564 0.00252715 0.00239639 0.00227456 0.00211329 0.00195356 0.00184038 0.00173036 0.00162387 0.00149336 0.00135868 0.00125441 0.00119036 0.00114381 0.00107655 0.00102076 0.000963874 0.000916119 0.0008936 0.000852107 0.000812686 0.00078715 0.000743638 0.000710618 0.00068316 0.000656672 0.000635318 0.000612232 0.000588444 0.000562754 0.000546696 0.000537492 0.000525525 0.000513004 0.00049574 0.000475233 0.000469436 0.00049107 0.000517278 0.000517627
285.565 0.00025 1.75258 0.289397 0.0946347 0.0539198 0.0405826 0.0342782 0.0297583 0.0267611 0.0241618 0.0211318 0.0187139 0.0166987 0.0156866 0.0150694 0.014503 0.0138387 0.0131991 0.0125564 0.0119876 0.0113231 0.0109471 0.0107908 0.0102892 0.00979519 0.00954071 0.00940076 0.0092704 0.00933562 0.009114 0.00889101 0.00855389 0.00813935 0.00772706 0.00738009 0.00709963 0.00687267 0.00670009 0.00658597 0.00646675 0.00632909 0.00619851 0.00589476 0.00567446 0.00546438 0.00523087 0.00506315 0.0048725 0.00461668 0.00427078 0.00402443 0.00382963 0.0036172 0.00350757 0.00339032 0.00330275 0.0032 0.00315489 0.00309486 0.00291992 0.00276566 0.00265835 0.00252507 0.00239716 0.00227699 0.0021143 0.00195375 0.00184204 0.00173042 0.00162329 0.00149569 0.00136234 0.00125591 0.00119043 0.00114391 0.00107739 0.00102142 0.000964304 0.000916314 0.000893128 0.000852278 0.000812498 0.000786578 0.000743391 0.000710418 0.000682593 0.000656235 0.000635024 0.00061181 0.000588151 0.000562875 0.000546681 0.000537412 0.000525439 0.000512903 0.000495553 0.000475221 0.000469389 0.000490882 0.000516928 0.000517043
285.5675 0.00025 1.75222 0.289379 0.0945988 0.0539707 0.0405562 0.0341979 0.029703 0.0267293 0.0241009 0.0211331 0.0187258 0.0166922 0.0156667 0.0150402 0.0144826 0.013825 0.0132095 0.0125513 0.0119836 0.0113202 0.0109408 0.010795 0.0103045 0.00982547 0.00956002 0.00940434 0.00926513 0.00932997 0.00912934 0.00890218 0.00855693 0.00814464 0.00773808 0.0073933 0.00710183 0.00687399 0.00670145 0.00658095 0.0064642 0.0063304 0.00620376 0.00589239 0.00565986 0.00545575 0.00523148 0.00505408 0.0048628 0.00461389 0.00427093 0.00402117 0.00382787 0.00361799 0.00350892 0.00338934 0.00329728 0.00319482 0.00314935 0.00308799 0.002917 0.0027597 0.00265168 0.00252125 0.00239589 0.00227858 0.00211512 0.00195376 0.00184344 0.00173049 0.00162351 0.00149812 0.00136667 0.00125761 0.00119018 0.00114415 0.00107836 0.00102219 0.000964921 0.000916455 0.000892881 0.000852418 0.000812238 0.000786088 0.000743174 0.000710057 0.00068207 0.000655646 0.000634694 0.000611527 0.000587838 0.00056307 0.000546665 0.000537318 0.000525356 0.000512763 0.000495357 0.000475223 0.000469337 0.000490682 0.000516568 0.000516495