285.5025 0.00025 1.75463 0.286744 0.0930293 0.054277 0.0423534 0.0355129 0.0304935 0.0274584 0.024714 0.0212774 0.0189909 0.0176833 0.0167046 0.0157414 0.015209 0.0142009 0.0133005 0.0126769 0.0118995 0.0111836 0.010903 0.010412 0.00990964 0.00948642 0.00925553 0.00918853 0.00922993 0.00910701 0.00882603 0.00867791 0.00842537 0.0081951 0.0078148 0.00750065 0.00729471 0.00707987 0.00688251 0.0066907 0.00650834 0.0063203 0.00617635 0.00606359 0.0059679 0.00569095 0.00555163 0.00535435 0.00503146 0.00467772 0.00432358 0.00411273 0.00387425 0.0036066 0.00345655 0.00342301 0.00346029 0.00337007 0.00332082 0.00322962 0.00305366 0.0029563 0.0027803 0.00256684 0.00239796 0.00226338 0.00214193 0.00197083 0.00183652 0.00174491 0.00161475 0.00144103 0.00132308 0.00124208 0.00119329 0.00114554 0.00107439 0.00101829 0.0009671 0.000932988 0.000906274 0.000856612 0.000833297 0.000810182 0.000758172 0.000727602 0.000703341 0.000674601 0.000648993 0.000627272 0.000596101 0.000563015 0.000549878 0.000542059 0.000527672 0.000515928 0.000497433 0.000472663 0.000466124 0.000492736 0.000515899 0.000535982
285.505 0.00025 1.75516 0.286909 0.0930907 0.0542295 0.042307 0.035481 0.0304796 0.0274287 0.0247574 0.0212761 0.0189607 0.017635 0.0166778 0.0157228 0.0151855 0.0141887 0.0132972 0.0126927 0.0119124 0.0112049 0.0109163 0.010427 0.00991183 0.0094789 0.00925874 0.00920387 0.00926334 0.00913445 0.00884738 0.0086867 0.00842633 0.00818495 0.00780587 0.00749314 0.00728169 0.00706894 0.00688134 0.00669117 0.00650686 0.00631869 0.0061738 0.0060649 0.00596547 0.00567738 0.0055314 0.00534994 0.00503125 0.0046762 0.00432512 0.00411659 0.00387596 0.00360684 0.00345826 0.00342358 0.00345602 0.00336191 0.00331408 0.00322434 0.00304439 0.00295332 0.00277969 0.00256597 0.00239776 0.00226466 0.00214139 0.0019719 0.00183861 0.00174613 0.00161847 0.00144423 0.0013252 0.00124282 0.00119313 0.00114572 0.00107471 0.00101933 0.000967604 0.000932835 0.000906762 0.000856425 0.000832169 0.000809604 0.000757802 0.000727068 0.00070277 0.000674116 0.000648864 0.000627322 0.000596313 0.000563049 0.000549701 0.00054187 0.000527574 0.000515887 0.000497474 0.000472806 0.000466044 0.000492503 0.000515483 0.000535323
285.5075 0.00025 1.75567 0.287259 0.0930549 0.0541828 0.0422601 0.0354486 0.0304581 0.0274173 0.0247947 0.0212773 0.0189211 0.017593 0.0166516 0.0157066 0.0151621 0.0141744 0.0132934 0.0127057 0.0119309 0.0112214 0.0109234 0.0104429 0.0099154 0.00947519 0.00926293 0.00921709 0.00929531 0.0091637 0.00887083 0.00869403 0.00842416 0.00817857 0.00779485 0.00748595 0.00726904 0.00705822 0.0068747 0.00669067 0.00650601 0.00631674 0.00617222 0.00606394 0.0059642 0.00566375 0.0055084 0.00534687 0.00502996 0.00467441 0.0043279 0.00411869 0.00387754 0.00360757 0.0034594 0.00342482 0.0034513 0.00335583 0.00330927 0.00322107 0.00303419 0.00295 0.00277888 0.00256501 0.0023975 0.00226725 0.00214107 0.00197223 0.00184103 0.00174719 0.00162195 0.00144768 0.00132704 0.00124358 0.00119297 0.00114582 0.00107492 0.00102031 0.000967935 0.000932618 0.000907276 0.000856358 0.000831035 0.000808954 0.000757465 0.000726499 0.00070225 0.000673694 0.000648603 0.000627271 0.000596465 0.0005631 0.000549668 0.000541685 0.000527468 0.000515813 0.000497472 0.000472896 0.000465936 0.000492254 0.000515084 0.000534696
285.51 0.00025 1.75616 0.287302 0.0930301 0.054128 0.0422211 0.0354374 0.030443 0.027391 0.0248256 0.0212739 0.0188915 0.0175458 0.0166205 0.0156915 0.0151428 0.0141637 0.0132867 0.0127162 0.0119445 0.0112396 0.0109333 0.0104577 0.0099204 0.00947053 0.00926587 0.00922889 0.00932236 0.00919322 0.00889417 0.00870555 0.00842577 0.00817081 0.00778724 0.00747973 0.00725919 0.00704636 0.00687104 0.00668972 0.00650804 0.00631438 0.00617314 0.0060647 0.0059621 0.00565171 0.00548715 0.00534148 0.00502984 0.00467263 0.00432989 0.00412111 0.00387842 0.00360852 0.00346189 0.00342561 0.00344578 0.00334849 0.00330307 0.00321697 0.00302585 0.00294516 0.00277848 0.00256482 0.00239793 0.00226905 0.00214104 0.00197239 0.00184235 0.0017484 0.00162521 0.00145107 0.00132902 0.00124459 0.0011929 0.00114596 0.00107509 0.00102107 0.000968309 0.000932317 0.000907736 0.000856386 0.000829859 0.000808374 0.000757095 0.000725909 0.000701634 0.000673176 0.000648287 0.000627161 0.000596686 0.000563217 0.000549491 0.000541513 0.000527402 0.000515743 0.000497479 0.000473018 0.000465797 0.000492 0.000514684 0.000534076
285.5125 0.00025 1.75662 0.287335 0.0929881 0.054086 0.0421694 0.0354218 0.0304286 0.0273653 0.0248443 0.0212869 0.018864 0.0175005 0.0165895 0.0156736 0.0151241 0.0141552 0.0132814 0.0127219 0.0119528 0.0112567 0.010937 0.0104721 0.00992559 0.00947428 0.00927215 0.00923973 0.00934827 0.00922644 0.00891841 0.0087112 0.00842692 0.00816334 0.00777981 0.00747305 0.00724756 0.00703636 0.00686426 0.00668696 0.00650954 0.00631425 0.00617288 0.00606224 0.00595846 0.00563988 0.00546511 0.00533553 0.00502918 0.00467163 0.00433007 0.00412216 0.00387984 0.0036098 0.00346397 0.00342576 0.00344122 0.00334207 0.00329851 0.00321331 0.00301779 0.00294097 0.0027775 0.00256548 0.00239836 0.00227076 0.00214035 0.00197348 0.00184356 0.00174993 0.00162881 0.00145464 0.00133073 0.00124546 0.00119291 0.00114615 0.00107533 0.00102184 0.000968888 0.00093212 0.000908165 0.000856405 0.000828845 0.00080778 0.000756805 0.000725363 0.000701131 0.000672745 0.000647985 0.000627088 0.000596831 0.00056332 0.000549341 0.00054137 0.000527315 0.000515686 0.000497507 0.000473118 0.000465685 0.000491749 0.000514365 0.000533473
285.515 0.00025 1.75703 0.287575 0.0930276 0.0540184 0.0421011 0.0354105 0.0304341 0.0273577 0.0248501 0.0212978 0.0188459 0.0174511 0.0165503 0.0156559 0.0151017 0.0141477 0.0132819 0.0127231 0.011961 0.011272 0.0109414 0.0104894 0.00993689 0.00948172 0.00927639 0.00924984 0.00936762 0.00925857 0.00894173 0.00871602 0.00843068 0.00815904 0.00777199 0.00746486 0.00723765 0.00702781 0.00685708 0.00668684 0.00650929 0.00631338 0.00617178 0.00605996 0.00595547 0.00562902 0.00544461 0.00532979 0.0050297 0.00467054 0.00433106 0.00412392 0.00388104 0.00361059 0.00346667 0.00342588 0.00343615 0.00333588 0.0032929 0.00321063 0.00301039 0.00293468 0.00277586 0.00256577 0.0023992 0.00227261 0.00214023 0.00197324 0.00184486 0.00175157 0.00163226 0.00145832 0.00133253 0.00124633 0.00119323 0.00114653 0.00107555 0.00102244 0.000969375 0.000931897 0.000908499 0.000856539 0.000827788 0.000807058 0.000756451 0.000724777 0.000700697 0.000672242 0.000647694 0.00062693 0.000597009 0.000563435 0.000549216 0.000541169 0.000527226 0.000515602 0.000497476 0.000473219 0.000465563 0.000491569 0.000513988 0.000532879
285.5175 0.00025 1.75741 0.287837 0.0930454 0.0539592 0.0420389 0.0353965 0.0304366 0.0273317 0.0248678 0.0213058 0.0188272 0.0173993 0.0165141 0.0156331 0.015086 0.0141346 0.0132709 0.0127234 0.0119645 0.0112891 0.0109488 0.0105016 0.00994605 0.00948476 0.00928419 0.00926087 0.00938298 0.00928948 0.0089663 0.00872566 0.00843559 0.00815446 0.00776198 0.00745552 0.00722951 0.00701914 0.0068481 0.00668318 0.00650967 0.00631342 0.00617209 0.00605614 0.00595122 0.00561904 0.00542471 0.00532284 0.00502909 0.00466981 0.00433244 0.0041234 0.0038825 0.00361127 0.00347038 0.00342688 0.00343191 0.00332926 0.00328761 0.00320554 0.00300512 0.00292861 0.00277392 0.00256585 0.00239976 0.00227468 0.00214032 0.00197314 0.00184692 0.00175271 0.00163548 0.00146209 0.0013342 0.00124807 0.00119331 0.00114681 0.00107571 0.00102299 0.000969813 0.000931605 0.000908944 0.000856652 0.000826841 0.000806455 0.000756137 0.000724215 0.000700157 0.000671877 0.000647395 0.000626721 0.000597208 0.000563576 0.000549073 0.000541048 0.000527166 0.000515498 0.000497449 0.000473343 0.000465536 0.000491368 0.000513646 0.000532238
285.52 0.00025 1.75775 0.288337 0.0930683 0.0539057 0.0419928 0.0353882 0.0304386 0.0273384 0.0248712 0.0213154 0.0188155 0.0173524 0.0164772 0.0156177 0.0150662 0.0141279 0.0132712 0.0127253 0.0119664 0.0113072 0.0109551 0.0105139 0.0099574 0.00949293 0.00928832 0.00926982 0.00939481 0.00931777 0.00898855 0.00873128 0.00844506 0.0081508 0.00775614 0.00744767 0.00722123 0.00701072 0.0068391 0.00668047 0.00650976 0.00631304 0.0061742 0.00605207 0.00594787 0.00560983 0.00540464 0.00531397 0.00502937 0.00466866 0.00433102 0.00412287 0.00388303 0.00361244 0.0034734 0.00342709 0.00342631 0.00332269 0.0032814 0.0032014 0.00299707 0.00292212 0.002772 0.0025661 0.00240023 0.0022759 0.00213997 0.00197346 0.00184786 0.00175394 0.00163898 0.00146612 0.00133593 0.00124899 0.00119339 0.00114711 0.00107585 0.00102355 0.000970384 0.000931408 0.000909288 0.000856811 0.000826012 0.000805692 0.000755777 0.000723672 0.00069955 0.000671355 0.0006472 0.000626482 0.000597344 0.000563746 0.000548943 0.000540901 0.000527055 0.000515435 0.000497401 0.000473472 0.00046546 0.000491152 0.000513251 0.000531645
285.5225 0.00025 1.75804 0.288454 0.0931223 0.0538686 0.0419256 0.0353719 0.0304468 0.0273179 0.0248684 0.0213253 0.018808 0.0173028 0.0164427 0.015601 0.0150506 0.0141194 0.0132673 0.0127209 0.0119686 0.0113248 0.0109608 0.0105281 0.00997077 0.00950299 0.00929519 0.00927971 0.00940527 0.00934543 0.00900813 0.00874313 0.00845362 0.00814897 0.00774978 0.00743905 0.00721064 0.00700298 0.00683028 0.00667706 0.00650914 0.00631313 0.00617682 0.00604918 0.00594263 0.00560097 0.00538639 0.00530507 0.00502916 0.00466891 0.00433014 0.00412182 0.00388308 0.00361375 0.00347636 0.00342712 0.00342142 0.00331576 0.00327383 0.00319867 0.00299203 0.00291471 0.00276912 0.0025673 0.00240246 0.0022774 0.00214046 0.00197297 0.00184898 0.00175466 0.00164203 0.00147035 0.00133784 0.00125023 0.00119365 0.00114761 0.0010762 0.00102411 0.000970941 0.000931305 0.000909577 0.000857033 0.000825085 0.000805015 0.000755483 0.000723144 0.000699001 0.000670893 0.000646833 0.000626296 0.000597498 0.000563924 0.000548807 0.000540738 0.000526945 0.000515339 0.000497334 0.000473589 0.000465388 0.000490946 0.000512878 0.000531025
285.525 0.00025 1.75828 0.28849 0.0931325 0.0538062 0.0418498 0.0353822 0.0304363 0.0272993 0.0248588 0.0213313 0.0187969 0.0172594 0.0164026 0.0155797 0.0150314 0.0141101 0.0132713 0.01272 0.0119673 0.011337 0.0109719 0.0105411 0.0099813 0.00951532 0.00930545 0.0092877 0.00941184 0.00936738 0.00902927 0.00875212 0.00846263 0.00814812 0.00774139 0.00742895 0.00720197 0.00699529 0.00682082 0.00667426 0.0065098 0.00631548 0.00617968 0.00604445 0.00593547 0.00559313 0.00536902 0.0052963 0.00502862 0.00466866 0.00432895 0.00412003 0.00388391 0.0036146 0.00348005 0.00342719 0.0034152 0.00330927 0.00326763 0.00319398 0.00298598 0.00290699 0.00276598 0.00256757 0.00240289 0.0022786 0.00214112 0.00197283 0.0018494 0.00175585 0.00164518 0.00147441 0.00133965 0.0012513 0.00119399 0.00114798 0.00107647 0.0010245 0.000971323 0.000931113 0.000909984 0.000857191 0.000824308 0.000804305 0.000755181 0.000722579 0.000698442 0.000670394 0.000646452 0.000626003 0.000597589 0.000564133 0.000548715 0.000540569 0.000526834 0.000515218 0.000497299 0.000473694 0.000465325 0.000490755 0.000512504 0.000530466
285.5275 0.00025 1.75844 0.288093 0.0931927 0.0537291 0.0417913 0.0353674 0.0304485 0.0272781 0.0248558 0.0213361 0.0187954 0.0172159 0.0163574 0.015561 0.0150136 0.0141007 0.0132704 0.0127164 0.0119635 0.0113455 0.0109824 0.0105549 0.00999348 0.00952593 0.00931659 0.00930033 0.00942073 0.00938964 0.00904553 0.00876407 0.00847227 0.00814838 0.00773795 0.00742053 0.0071948 0.0069899 0.00681058 0.00667022 0.00651062 0.00631701 0.00618375 0.00603863 0.00592837 0.00558657 0.00535389 0.00528671 0.00502621 0.00466958 0.00432765 0.00411828 0.00388379 0.00361731 0.00348432 0.00342784 0.00341001 0.00330242 0.00326134 0.00319055 0.00298179 0.00289868 0.00276286 0.00256865 0.00240447 0.00227999 0.00214107 0.00197291 0.00185039 0.00175669 0.00164829 0.00147865 0.00134175 0.00125213 0.00119462 0.00114864 0.00107685 0.00102483 0.000971761 0.00093098 0.000910179 0.000857406 0.000823469 0.000803654 0.000754852 0.00072206 0.000697869 0.00066993 0.000646076 0.000625716 0.000597803 0.000564402 0.000548627 0.000540408 0.000526773 0.000515094 0.00049721 0.000473807 0.000465284 0.000490611 0.000512148 0.000529871
285.53 0.00025 1.75856 0.288368 0.0932075 0.0536963 0.0417354 0.0353591 0.0304347 0.0272571 0.0248589 0.021341 0.0187889 0.017176 0.0163125 0.0155477 0.0149939 0.0140851 0.0132703 0.0127126 0.011961 0.0113555 0.0109917 0.0105744 0.0100056 0.00953531 0.00933316 0.00931447 0.00942238 0.00940581 0.00906229 0.00877831 0.0084872 0.0081523 0.00773502 0.00741118 0.00718597 0.0069832 0.00680023 0.00666659 0.00651078 0.00631958 0.00618756 0.00602996 0.0059204 0.00558099 0.00533748 0.00527651 0.00502521 0.0046701 0.00432657 0.00411475 0.00388362 0.00361866 0.00348882 0.0034277 0.00340434 0.00329653 0.0032549 0.00318686 0.00297841 0.0028899 0.00275936 0.00256927 0.00240604 0.00228107 0.00214129 0.00197324 0.00185093 0.00175763 0.00165108 0.00148337 0.00134373 0.00125299 0.0011951 0.00114906 0.00107724 0.00102515 0.000972102 0.00093098 0.000910369 0.000857646 0.000822786 0.000802919 0.000754549 0.000721567 0.000697338 0.000669484 0.000645704 0.000625365 0.000597934 0.00056463 0.000548591 0.000540291 0.000526724 0.000514989 0.000497113 0.000473928 0.000465243 0.000490434 0.000511806 0.000529226
285.5325 0.00025 1.75864 0.288754 0.0932953 0.0536611 0.0416645 0.0353292 0.0304107 0.0272342 0.0248472 0.0213421 0.0187889 0.0171367 0.0162621 0.015527 0.0149747 0.0140717 0.0132701 0.0127094 0.0119631 0.0113591 0.0110001 0.0105974 0.0100163 0.00955051 0.00935297 0.00933213 0.00942598 0.00941954 0.0090748 0.00879703 0.00849854 0.00815415 0.00773097 0.00740371 0.00717842 0.00698073 0.00678862 0.00666187 0.00651119 0.00632266 0.00619315 0.0060225 0.00591161 0.00557421 0.00532542 0.00526519 0.00502339 0.00467121 0.00432511 0.00411125 0.00388302 0.00362131 0.00349419 0.00342704 0.00339806 0.00329006 0.00324918 0.0031826 0.00297376 0.00288091 0.00275477 0.00256926 0.00240756 0.00228462 0.00214144 0.00197263 0.00185208 0.00175813 0.00165383 0.0014879 0.00134597 0.00125374 0.00119567 0.0011496 0.00107769 0.00102553 0.000972467 0.000930801 0.000910546 0.00085803 0.000822103 0.000802118 0.000754211 0.000721097 0.0006968 0.000668976 0.000645329 0.00062499 0.000597966 0.00056491 0.000548532 0.000540126 0.000526615 0.000514899 0.000496996 0.000474039 0.000465278 0.000490258 0.000511492 0.000528617
285.535 0.00025 1.75867 0.288803 0.0932794 0.053634 0.0415905 0.0352906 0.0303774 0.0272209 0.0248331 0.0213533 0.0187925 0.0171008 0.0162151 0.0155055 0.0149516 0.0140552 0.0132666 0.012708 0.0119629 0.011362 0.0110131 0.0106151 0.0100316 0.00955801 0.00937266 0.00934628 0.00942431 0.00943178 0.00908577 0.00881146 0.00851418 0.00816031 0.00772937 0.00739537 0.00717115 0.0069767 0.00677944 0.00665738 0.00651135 0.00632537 0.00619846 0.00601392 0.00590106 0.00556876 0.00531248 0.00525403 0.00502068 0.0046744 0.00432359 0.00410799 0.00388197 0.00362374 0.00349919 0.00342732 0.00339206 0.00328376 0.00324348 0.00317788 0.00296889 0.00287158 0.00275004 0.00256868 0.00240926 0.00228571 0.00214149 0.00197276 0.00185244 0.001758 0.0016562 0.00149253 0.00134846 0.00125545 0.0011962 0.00115021 0.0010781 0.00102587 0.000972936 0.000930619 0.000910715 0.00085844 0.000821407 0.000801328 0.00075392 0.000720588 0.000696231 0.00066859 0.000644957 0.000624656 0.000597978 0.000565225 0.000548458 0.000540008 0.000526528 0.000514786 0.000496877 0.000474164 0.00046528 0.000490096 0.000511217 0.000528084
285.5375 0.00025 1.75864 0.288805 0.0931802 0.053635 0.0415277 0.035259 0.0303545 0.0271907 0.0248264 0.0213596 0.018786 0.0170627 0.0161686 0.0154841 0.0149296 0.0140431 0.0132585 0.0127019 0.0119644 0.011362 0.0110282 0.0106399 0.0100473 0.00956917 0.00939409 0.00936313 0.00942239 0.00944137 0.00909816 0.00883389 0.00853006 0.00816403 0.00773201 0.00738984 0.00716755 0.00697197 0.00676968 0.00665299 0.00651226 0.00632777 0.00620396 0.00600619 0.00588986 0.00556613 0.00530138 0.00524138 0.00501645 0.00467588 0.00432277 0.00410401 0.00388178 0.00362589 0.00350461 0.00342652 0.00338577 0.00327718 0.00323815 0.00317413 0.00296612 0.00286219 0.00274448 0.00256879 0.00241015 0.00228826 0.00214213 0.00197282 0.00185338 0.00175832 0.00165887 0.00149725 0.00135113 0.00125656 0.00119656 0.00115083 0.00107879 0.00102623 0.000973237 0.000930889 0.000910859 0.00085873 0.000820792 0.000800556 0.000753602 0.000720127 0.000695636 0.000668077 0.000644535 0.000624222 0.000597964 0.000565557 0.000548468 0.000539858 0.000526442 0.000514645 0.000496755 0.000474257 0.000465303 0.000489929 0.000510861 0.000527538
285.54 0.00025 1.75858 0.28882 0.093233 0.0536178 0.0414389 0.0352141 0.0303497 0.0271629 0.0248103 0.0213651 0.0187903 0.0170312 0.0161203 0.015455 0.0149113 0.0140269 0.0132509 0.0127001 0.0119689 0.0113626 0.0110342 0.0106651 0.0100634 0.00957824 0.00941553 0.00938107 0.00941927 0.00944863 0.00910631 0.00885392 0.00854699 0.00817038 0.00773306 0.0073841 0.0071629 0.00696948 0.0067615 0.00664739 0.00651377 0.00632893 0.0062113 0.00599918 0.00587657 0.00556206 0.00529196 0.00522861 0.00501163 0.00467769 0.00432067 0.00409916 0.00388046 0.00362745 0.00350938 0.00342636 0.00337966 0.00327154 0.00323073 0.00316937 0.00296231 0.00285436 0.00274031 0.00256789 0.00241234 0.00228998 0.00214193 0.00197306 0.0018541 0.00175826 0.00166107 0.00150195 0.00135375 0.001258 0.00119703 0.00115151 0.00107942 0.00102658 0.000973442 0.000930768 0.000910804 0.000859064 0.000820334 0.000799823 0.000753239 0.000719627 0.000695019 0.000667636 0.000644251 0.000623876 0.000597868 0.000565937 0.000548422 0.000539726 0.000526373 0.000514502 0.000496603 0.000474342 0.000465302 0.000489865 0.000510524 0.00052693
285.5425 0.00025 1.75848 0.28878 0.0932881 0.0536171 0.0413437 0.0351535 0.0303017 0.0271211 0.0247795 0.0213777 0.0187936 0.016995 0.0160787 0.0154294 0.0148876 0.0140163 0.0132475 0.0126869 0.0119756 0.0113618 0.0110382 0.0106884 0.0100805 0.00958979 0.00943558 0.00939932 0.00941271 0.00945382 0.00911512 0.00886864 0.00856329 0.0081753 0.0077359 0.00738255 0.00715978 0.00696624 0.00675429 0.00664258 0.00651476 0.00633221 0.0062171 0.0059903 0.00586239 0.00555898 0.00528406 0.00521403 0.0050071 0.00467992 0.00432001 0.00409458 0.00387956 0.00363194 0.00351497 0.00342578 0.00337325 0.00326574 0.00322385 0.00316589 0.00296085 0.00284629 0.00273368 0.00256756 0.00241438 0.0022916 0.00214234 0.00197324 0.00185483 0.00175916 0.00166282 0.00150669 0.00135691 0.0012595 0.00119756 0.00115223 0.00107998 0.00102699 0.000973687 0.000930726 0.00091081 0.000859411 0.000819877 0.000799081 0.000752925 0.000719185 0.000694417 0.00066716 0.000643847 0.000623397 0.000597771 0.000566216 0.000548442 0.000539602 0.000526289 0.000514367 0.000496458 0.000474489 0.000465291 0.000489781 0.000510221 0.000526367
285.545 0.00025 1.75834 0.288408 0.0933061 0.0536348 0.0412653 0.0350958 0.0302789 0.0271032 0.0247515 0.0213786 0.0188002 0.0169672 0.0160345 0.0153945 0.0148637 0.0140127 0.0132347 0.0126709 0.0119815 0.0113627 0.0110365 0.0107122 0.0101011 0.0096054 0.00945795 0.0094143 0.00941069 0.00945627 0.00912434 0.00888807 0.00858351 0.00817983 0.0077416 0.00738063 0.00715594 0.00696563 0.00674668 0.00663914 0.00651435 0.00633579 0.00622347 0.00598209 0.00584827 0.00555654 0.00527736 0.00520013 0.00499973 0.00468198 0.00431916 0.0040902 0.00387872 0.00363356 0.00351973 0.0034252 0.00336731 0.00325955 0.00321857 0.00316237 0.00295709 0.00283702 0.00272699 0.0025664 0.00241642 0.00229391 0.00214295 0.0019743 0.00185549 0.00175882 0.00166459 0.00151145 0.00136019 0.00126026 0.00119782 0.0011529 0.00108074 0.00102738 0.000974129 0.000930634 0.000910581 0.000859718 0.00081964 0.000798304 0.000752605 0.000718733 0.000693825 0.000666637 0.000643482 0.000622897 0.000597637 0.000566568 0.00054841 0.000539481 0.000526217 0.000514231 0.000496298 0.000474636 0.000465339 0.000489644 0.000509957 0.000525835
285.5475 0.00025 1.75817 0.288614 0.0934485 0.0536324 0.0412016 0.0350201 0.0302382 0.0270873 0.0247144 0.0213811 0.0188116 0.0169385 0.0159992 0.0153626 0.0148448 0.0140092 0.0132319 0.0126548 0.011985 0.0113659 0.0110326 0.0107318 0.0101218 0.00961852 0.00947624 0.00943123 0.00940369 0.00945308 0.00913673 0.00890575 0.00859732 0.00818525 0.00774918 0.00738219 0.00715393 0.00696425 0.00674224 0.00663426 0.00651322 0.00633944 0.00623009 0.00597465 0.00583193 0.00555402 0.00527245 0.00518525 0.00499265 0.00468431 0.00431855 0.00408522 0.00387837 0.00363542 0.00352388 0.00342467 0.00336103 0.00325451 0.00321168 0.00315839 0.00295458 0.00282865 0.00272043 0.0025651 0.00241818 0.00229632 0.00214422 0.0019742 0.00185622 0.00175827 0.00166557 0.00151613 0.00136378 0.00126114 0.00119828 0.00115363 0.00108151 0.0010276 0.000974415 0.000930487 0.000910433 0.000860001 0.000819272 0.000797674 0.000752261 0.000718293 0.000693224 0.000666191 0.000643101 0.00062244 0.000597432 0.000567015 0.000548388 0.000539379 0.000526168 0.000514144 0.000496125 0.000474718 0.000465411 0.000489532 0.00050965 0.000525216
285.55 0.00025 1.75799 0.289044 0.0934768 0.0536385 0.041123 0.0349609 0.030193 0.0270815 0.0246798 0.0213876 0.0188161 0.016905 0.0159606 0.0153311 0.0148149 0.0140065 0.0132265 0.0126343 0.0119935 0.0113698 0.0110317 0.0107514 0.0101455 0.00963545 0.00949203 0.00944649 0.0093966 0.00945216 0.00914584 0.0089264 0.00861738 0.00819546 0.00775789 0.0073854 0.00714969 0.0069616 0.00673634 0.00662838 0.00651241 0.00634403 0.0062365 0.00596722 0.00581482 0.00555175 0.00526754 0.00517228 0.00498485 0.00468647 0.00431771 0.00408026 0.00387695 0.00363751 0.00352786 0.00342426 0.00335492 0.00324836 0.00320569 0.00315344 0.00295252 0.00281985 0.00271196 0.00256385 0.00241943 0.00229855 0.00214414 0.00197499 0.00185682 0.00175723 0.00166656 0.00152059 0.00136765 0.00126247 0.00119836 0.00115422 0.00108239 0.00102795 0.000974602 0.000930355 0.000910229 0.000860346 0.000818898 0.000796991 0.000751903 0.000717882 0.000692575 0.000665717 0.000642827 0.00062187 0.000597222 0.000567368 0.000548413 0.000539326 0.000526091 0.000513992 0.000495968 0.000474781 0.000465421 0.000489413 0.000509329 0.00052466
285.5525 0.00025 1.75778 0.288769 0.0935192 0.0536768 0.041052 0.0348913 0.0301569 0.0270579 0.0246305 0.0213937 0.0188364 0.0168805 0.0159258 0.015298 0.0147817 0.0140004 0.0132288 0.012616 0.0120008 0.0113704 0.0110212 0.0107681 0.0101734 0.00965259 0.00950782 0.009461 0.00938869 0.00944681 0.00915939 0.00894325 0.00862785 0.0081999 0.00776665 0.00739075 0.00714775 0.00695954 0.00673234 0.00662122 0.00651201 0.00634826 0.0062435 0.00596004 0.00579474 0.00554857 0.00526441 0.00516093 0.00497696 0.00468799 0.00431845 0.00407536 0.00387611 0.00363895 0.00353164 0.00342349 0.00334905 0.00324228 0.00319869 0.00314876 0.00295196 0.00281142 0.00270474 0.00256143 0.00242067 0.00230139 0.00214512 0.00197505 0.00185718 0.00175705 0.00166722 0.00152492 0.00137181 0.0012638 0.00119902 0.00115485 0.00108332 0.0010283 0.000974763 0.000930473 0.000910057 0.000860743 0.000818564 0.000796266 0.000751533 0.000717489 0.000692022 0.00066529 0.000642488 0.000621346 0.000596955 0.000567696 0.000548467 0.000539304 0.00052604 0.000513845 0.000495788 0.000474884 0.000465435 0.000489341 0.000509049 0.000524086
285.555 0.00025 1.75754 0.288906 0.09364 0.0537014 0.0409921 0.0348245 0.0300943 0.0270417 0.0245707 0.0213884 0.018854 0.0168562 0.0158912 0.0152664 0.0147454 0.0139944 0.0132255 0.0125899 0.0120113 0.011373 0.0110147 0.010781 0.0101995 0.00967462 0.0095245 0.00947462 0.00938019 0.00944388 0.00917065 0.00895973 0.00864196 0.00820583 0.00777719 0.00739808 0.00714743 0.00695735 0.00673091 0.00661466 0.0065111 0.0063534 0.00624918 0.00595474 0.00577783 0.00554496 0.00526225 0.00514739 0.00496704 0.00468863 0.00431971 0.00407059 0.00387448 0.00364132 0.0035353 0.00342298 0.00334284 0.00323752 0.00319151 0.00314363 0.00294899 0.00280389 0.00269783 0.00255941 0.00242111 0.00230399 0.00214628 0.00197531 0.001858 0.0017565 0.00166718 0.00152913 0.00137623 0.00126498 0.00119948 0.00115551 0.00108421 0.00102866 0.000975122 0.000930354 0.000909773 0.000861126 0.000818357 0.000795537 0.000751221 0.000717046 0.000691391 0.000664776 0.000642133 0.000620827 0.000596738 0.000568015 0.000548485 0.000539219 0.000526046 0.00051377 0.000495599 0.000474927 0.000465457 0.000489337 0.000508765 0.000523554
285.5575 0.00025 1.75728 0.288779 0.0936764 0.0537221 0.0409427 0.0347499 0.0300401 0.0270285 0.0245099 0.0213832 0.0188725 0.0168379 0.015855 0.0152384 0.0147115 0.013986 0.0132313 0.0125716 0.012016 0.011376 0.0110006 0.0107911 0.0102232 0.00970211 0.00954139 0.00948397 0.00936992 0.00943779 0.00918316 0.00897404 0.00864973 0.00821226 0.00778833 0.00740785 0.00714708 0.00695882 0.00672956 0.00660741 0.00650857 0.00635903 0.00625535 0.00594788 0.00575658 0.0055424 0.00526221 0.00513547 0.0049576 0.00468893 0.00432086 0.00406676 0.00387263 0.00364201 0.0035386 0.00342249 0.0033376 0.00323205 0.00318525 0.0031374 0.00294805 0.00279592 0.00268972 0.00255731 0.00242288 0.00230678 0.00214751 0.00197521 0.00185939 0.00175538 0.001667 0.00153307 0.00138063 0.0012668 0.00119951 0.00115601 0.00108519 0.00102913 0.000975371 0.000930242 0.000909432 0.000861404 0.00081824 0.000794847 0.000750875 0.000716639 0.000690804 0.000664248 0.000641849 0.000620361 0.0005964 0.000568347 0.000548489 0.000539135 0.000526031 0.000513641 0.000495388 0.000474947 0.000465565 0.000489256 0.000508521 0.000522985
285.56 0.00025 1.75698 0.288523 0.0938029 0.0538063 0.0408855 0.0346901 0.0300059 0.0270134 0.0244557 0.0213771 0.0188839 0.0168216 0.0158271 0.0152108 0.0146704 0.0139819 0.0132347 0.0125588 0.0120208 0.0113764 0.0109936 0.0107955 0.0102482 0.00972859 0.00955711 0.00948831 0.00936497 0.00943261 0.00919599 0.00898884 0.00865766 0.00822075 0.00780024 0.0074181 0.00714685 0.00695537 0.00672902 0.00659951 0.00650591 0.00636485 0.00626133 0.00594309 0.00573707 0.00553622 0.00526341 0.00512367 0.00494773 0.00468794 0.00432154 0.00406271 0.00387155 0.00364305 0.0035407 0.00342159 0.00333215 0.003227 0.00317872 0.00313075 0.00294583 0.00278852 0.00268148 0.00255516 0.00242278 0.00230913 0.00214949 0.00197517 0.00186063 0.00175531 0.00166796 0.00153649 0.00138516 0.00126845 0.00120011 0.00115656 0.00108616 0.00102961 0.000975612 0.000930123 0.00090909 0.000861705 0.00081802 0.000794155 0.000750504 0.000716234 0.000690191 0.000663719 0.000641488 0.000619872 0.000596041 0.000568639 0.000548596 0.000539066 0.000526022 0.000513494 0.000495198 0.000474951 0.000465631 0.000489188 0.000508225 0.000522479
285.5625 0.00025 1.75666 0.288275 0.0939114 0.053837 0.0408324 0.0346064 0.0299567 0.0269986 0.0243895 0.0213742 0.0188994 0.0168164 0.0157982 0.0151758 0.0146309 0.0139706 0.013239 0.0125459 0.0120205 0.0113765 0.0109851 0.0108025 0.0102775 0.00975854 0.00957575 0.00949634 0.00935149 0.00942541 0.00921001 0.00899633 0.00866547 0.00822569 0.00781247 0.00742999 0.00714908 0.00695471 0.00673212 0.00659437 0.00650155 0.00637066 0.00626748 0.00593848 0.00571812 0.00552932 0.005264 0.00511254 0.00493659 0.00468665 0.00432365 0.00405883 0.00386976 0.00364514 0.00354317 0.00342084 0.00332685 0.00322218 0.00317206 0.00312616 0.00294422 0.00278196 0.00267333 0.00255301 0.00242277 0.00231118 0.00215147 0.00197555 0.00186188 0.00175526 0.00166762 0.00153985 0.00139005 0.00127093 0.00120029 0.00115703 0.00108716 0.00103014 0.000975939 0.000929986 0.000908623 0.000861899 0.000817906 0.000793527 0.000750179 0.00071583 0.000689534 0.000663172 0.000641042 0.000619453 0.000595666 0.000568875 0.000548625 0.000539075 0.000526006 0.000513388 0.000494995 0.000474986 0.000465656 0.000489124 0.000508 0.000521994
285.565 0.00025 1.75632 0.288333 0.0939409 0.0538728 0.0407962 0.0345174 0.0298993 0.026981 0.0243374 0.0213688 0.0189159 0.0168172 0.0157763 0.0151471 0.0145932 0.013956 0.0132389 0.0125356 0.0120158 0.011374 0.0109749 0.0108079 0.0103026 0.00978768 0.00959482 0.00950022 0.00933409 0.00941967 0.0092268 0.00900963 0.00867064 0.00823287 0.00782709 0.00744223 0.00715154 0.00695494 0.00673658 0.00658719 0.00649714 0.00637571 0.00627283 0.00593432 0.00569797 0.00552166 0.00526548 0.00510169 0.00492529 0.00468338 0.00432466 0.00405584 0.00386761 0.00364559 0.00354495 0.00342111 0.0033219 0.00321671 0.0031656 0.0031198 0.00294333 0.00277652 0.00266509 0.00255061 0.00242274 0.00231384 0.00215343 0.001976 0.00186343 0.0017547 0.00166618 0.00154284 0.00139486 0.00127327 0.00120032 0.00115714 0.00108819 0.00103079 0.000976228 0.000930107 0.000908206 0.000862167 0.000817814 0.000792867 0.000749856 0.000715556 0.00068888 0.00066271 0.000640742 0.000618988 0.000595264 0.000569117 0.000548675 0.00053902 0.000525989 0.000513306 0.000494786 0.000474984 0.00046575 0.000489082 0.000507776 0.000521414
285.5675 0.00025 1.75594 0.288308 0.0939042 0.0539329 0.0407753 0.0344383 0.0298365 0.026952 0.0242734 0.0213592 0.0189324 0.0168206 0.0157597 0.0151163 0.0145656 0.0139423 0.0132489 0.0125243 0.0120075 0.0113673 0.0109667 0.0108126 0.010323 0.00982261 0.00961597 0.00950359 0.00932139 0.00941193 0.00924615 0.00901643 0.0086737 0.00823841 0.00783977 0.00745689 0.00715517 0.00695614 0.00674039 0.00658216 0.00649325 0.00637982 0.0062778 0.00593114 0.00568019 0.0055134 0.00526765 0.00509176 0.00491455 0.00467962 0.00432567 0.0040534 0.00386638 0.00364602 0.00354619 0.00342107 0.00331695 0.00321129 0.00315994 0.00311187 0.00294127 0.00277065 0.00265784 0.0025468 0.00242138 0.00231537 0.00215544 0.00197616 0.00186456 0.00175425 0.00166595 0.00154589 0.0014003 0.00127578 0.00120023 0.00115733 0.00108931 0.00103152 0.00097674 0.00093011 0.000907919 0.000862404 0.000817632 0.000792301 0.000749502 0.000715157 0.000688283 0.000662083 0.000640408 0.000618651 0.000594827 0.000569456 0.000548745 0.000538964 0.000525978 0.00051317 0.000494581 0.000475009 0.000465852 0.000489039 0.000507561 0.000520872