285.5025 0.00025 0.00259388 0.00392819 -0.0742676 -0.115357 -0.101785 -0.17462 -0.172314 -0.188672 -0.227858 -0.282576 -0.312387 -0.268562 -0.31912 -0.345231 -0.349171 -0.301504 -0.24998 -0.183051 -0.131872 -0.110595 -0.0866246 -0.0838401 -0.085066 -0.100997 -0.102224 -0.0513403 -0.0106516 -0.0164201 -0.0573194 -0.0696477 -0.0390917 -0.0572682 -0.0593979 -0.103504 -0.196321 -0.299045 -0.314675 -0.29762 -0.245831 -0.239952 -0.2809 -0.322347 -0.330029 -0.380352 -0.365478 -0.327201 -0.325447 -0.301528 -0.26767 -0.261431 -0.318951 -0.335671 -0.39143 -0.471905 -0.455544 -0.540086 -0.612362 -0.580356 -0.707089 -0.738465 -0.716833 -0.689097 -0.712299 -0.782482 -0.784077 -0.698557 -0.707223 -0.682905 -0.544942 -0.431488 -0.395078 -0.34364 -0.302975 -0.354832 -0.377959 -0.401649 -0.389285 -0.374911 -0.302462 -0.220649 -0.221367 -0.190251 -0.129507 -0.114187 -0.171203 -0.225474 -0.254919 -0.317172 -0.399352 -0.45424 -0.4826 -0.498122 -0.493379 -0.459538 -0.363345 -0.266543 -0.225559 -0.221046 -0.215319 -0.188532
285.505 0.00025 0.00738438 0.00901657 -0.0736467 -0.119391 -0.102966 -0.177058 -0.174168 -0.19308 -0.227915 -0.279506 -0.308801 -0.268815 -0.318117 -0.339072 -0.345451 -0.29936 -0.24562 -0.184152 -0.133041 -0.11117 -0.0860697 -0.0812715 -0.083576 -0.104691 -0.107234 -0.0564549 -0.0161654 -0.017949 -0.0601031 -0.0730029 -0.0374087 -0.0530322 -0.0534553 -0.0992222 -0.193502 -0.296512 -0.316902 -0.304211 -0.250402 -0.239084 -0.280935 -0.319258 -0.323109 -0.374284 -0.365631 -0.326323 -0.325405 -0.304147 -0.271376 -0.263946 -0.317687 -0.334733 -0.38611 -0.469463 -0.455806 -0.537518 -0.614098 -0.57469 -0.6987 -0.739627 -0.717285 -0.689065 -0.715227 -0.787009 -0.790862 -0.701058 -0.706385 -0.692896 -0.553062 -0.439734 -0.400442 -0.347352 -0.308393 -0.355184 -0.373282 -0.399144 -0.386897 -0.373563 -0.303212 -0.219845 -0.219137 -0.187895 -0.127785 -0.11043 -0.165647 -0.222657 -0.254888 -0.316716 -0.397028 -0.453531 -0.484338 -0.499103 -0.492579 -0.45888 -0.363915 -0.266788 -0.225141 -0.220148 -0.214348 -0.187499
285.5075 0.00025 0.01215 0.0139656 -0.073536 -0.123451 -0.103953 -0.180087 -0.175591 -0.197298 -0.228452 -0.276849 -0.304341 -0.268819 -0.317565 -0.333264 -0.341166 -0.297622 -0.241109 -0.184737 -0.134317 -0.111366 -0.0856843 -0.0793706 -0.0818504 -0.107761 -0.112329 -0.0619804 -0.021914 -0.0202381 -0.0625335 -0.0760095 -0.0359461 -0.0483901 -0.0478729 -0.0945646 -0.190428 -0.294114 -0.318229 -0.310431 -0.25553 -0.238421 -0.280841 -0.316395 -0.316278 -0.367366 -0.365335 -0.326021 -0.325296 -0.306373 -0.275155 -0.267052 -0.316582 -0.333899 -0.380995 -0.466511 -0.4564 -0.535222 -0.615497 -0.569908 -0.689435 -0.74024 -0.718439 -0.688691 -0.717479 -0.791746 -0.797865 -0.703767 -0.705211 -0.70242 -0.561798 -0.448024 -0.405796 -0.351188 -0.313882 -0.356043 -0.368625 -0.396562 -0.38453 -0.371918 -0.303843 -0.219119 -0.216889 -0.185557 -0.126297 -0.106912 -0.160106 -0.219799 -0.254681 -0.316257 -0.394775 -0.452728 -0.485942 -0.500065 -0.491799 -0.458169 -0.364481 -0.267043 -0.224728 -0.21924 -0.213348 -0.186443
285.51 0.00025 0.0168808 0.0187538 -0.0739029 -0.127514 -0.104497 -0.183655 -0.176803 -0.201374 -0.22936 -0.274606 -0.299502 -0.268307 -0.317385 -0.327866 -0.336344 -0.296147 -0.236642 -0.184683 -0.135725 -0.111191 -0.0853398 -0.0781013 -0.0800696 -0.110196 -0.117267 -0.0679978 -0.027874 -0.0232881 -0.0647132 -0.0785506 -0.0347341 -0.0434796 -0.0426097 -0.0896104 -0.187057 -0.291946 -0.318704 -0.316199 -0.261255 -0.238096 -0.280585 -0.313783 -0.309619 -0.359705 -0.364413 -0.326277 -0.325199 -0.308218 -0.27894 -0.270669 -0.315724 -0.333113 -0.3761 -0.463061 -0.457217 -0.533185 -0.616486 -0.566033 -0.679393 -0.74017 -0.72029 -0.688096 -0.718954 -0.796612 -0.805039 -0.706768 -0.703726 -0.71134 -0.571218 -0.456339 -0.411095 -0.355103 -0.319366 -0.357422 -0.364019 -0.393881 -0.382167 -0.369944 -0.304328 -0.218468 -0.214611 -0.183218 -0.125023 -0.103627 -0.154584 -0.216905 -0.254305 -0.315776 -0.392597 -0.451833 -0.487409 -0.501003 -0.491038 -0.457401 -0.365032 -0.267301 -0.224313 -0.218316 -0.212317 -0.185357
285.5125 0.00025 0.0214964 0.023445 -0.0747822 -0.131533 -0.104465 -0.187569 -0.178015 -0.205374 -0.230527 -0.272637 -0.29473 -0.267227 -0.317293 -0.322883 -0.331074 -0.294804 -0.232429 -0.183916 -0.137277 -0.110743 -0.0848883 -0.0773634 -0.0783856 -0.112031 -0.121788 -0.0745724 -0.0341416 -0.0269985 -0.0668081 -0.0805341 -0.0337829 -0.0384515 -0.0376068 -0.0844438 -0.183357 -0.290023 -0.318419 -0.321375 -0.267483 -0.238199 -0.280096 -0.311434 -0.303234 -0.351509 -0.362723 -0.327083 -0.325233 -0.309646 -0.282644 -0.274729 -0.315236 -0.332379 -0.371467 -0.45921 -0.458193 -0.531413 -0.617053 -0.563112 -0.668799 -0.739264 -0.722817 -0.687454 -0.719639 -0.801467 -0.812371 -0.710033 -0.701974 -0.719489 -0.581379 -0.464648 -0.416297 -0.359151 -0.324769 -0.359313 -0.359497 -0.391121 -0.37986 -0.367703 -0.304649 -0.217926 -0.2123 -0.180883 -0.123964 -0.100599 -0.149115 -0.214005 -0.253782 -0.315257 -0.390503 -0.45086 -0.488744 -0.501918 -0.490302 -0.45659 -0.365582 -0.267575 -0.223907 -0.217387 -0.211267 -0.184259
285.515 0.00025 0.0260312 0.0280252 -0.0761716 -0.135464 -0.103973 -0.191533 -0.179409 -0.20937 -0.231856 -0.270799 -0.290311 -0.26581 -0.316936 -0.318378 -0.325439 -0.293444 -0.228649 -0.182404 -0.138861 -0.110167 -0.0842571 -0.0770371 -0.0769422 -0.113356 -0.125636 -0.0816428 -0.0409006 -0.0312194 -0.0689638 -0.0819093 -0.0331066 -0.0334884 -0.0327721 -0.0791365 -0.17929 -0.288337 -0.317472 -0.32587 -0.274115 -0.238767 -0.27937 -0.309312 -0.297139 -0.342936 -0.360083 -0.328331 -0.325483 -0.310683 -0.286216 -0.279197 -0.315162 -0.331709 -0.367111 -0.455001 -0.459285 -0.529889 -0.617179 -0.561135 -0.65786 -0.737363 -0.725827 -0.686841 -0.719507 -0.806132 -0.819824 -0.713644 -0.699998 -0.726773 -0.59237 -0.472997 -0.421436 -0.363358 -0.330075 -0.361705 -0.355102 -0.388262 -0.377577 -0.365194 -0.30476 -0.217496 -0.209942 -0.178525 -0.123107 -0.0978329 -0.143694 -0.211094 -0.253121 -0.314678 -0.388494 -0.44981 -0.489939 -0.502802 -0.48959 -0.455732 -0.36612 -0.267856 -0.223504 -0.216447 -0.21019 -0.183139
285.5175 0.00025 0.0304772 0.0324245 -0.0780873 -0.139272 -0.103136 -0.195238 -0.181236 -0.213442 -0.233295 -0.269045 -0.286373 -0.264405 -0.315979 -0.314326 -0.319502 -0.291973 -0.225431 -0.180217 -0.140347 -0.109601 -0.0834265 -0.0769795 -0.0758148 -0.114311 -0.128627 -0.0890793 -0.0483514 -0.0357113 -0.0713024 -0.0827475 -0.0327448 -0.028785 -0.0280329 -0.0737261 -0.17489 -0.286844 -0.316014 -0.329612 -0.280998 -0.239874 -0.278441 -0.30729 -0.291391 -0.334226 -0.356428 -0.329916 -0.326048 -0.311327 -0.289559 -0.283992 -0.31557 -0.331116 -0.363048 -0.450501 -0.460417 -0.528579 -0.616852 -0.560055 -0.646845 -0.734398 -0.729222 -0.686418 -0.718572 -0.81044 -0.827353 -0.717603 -0.69788 -0.733108 -0.604185 -0.481374 -0.426522 -0.367674 -0.335198 -0.364516 -0.350873 -0.385333 -0.375353 -0.362463 -0.304632 -0.217179 -0.207542 -0.176162 -0.122433 -0.0953354 -0.138334 -0.208167 -0.252341 -0.314025 -0.386566 -0.448692 -0.490994 -0.503655 -0.488902 -0.454835 -0.366651 -0.268152 -0.223106 -0.215504 -0.209091 -0.181998
285.52 0.00025 0.0348357 0.0366329 -0.0804664 -0.142935 -0.102113 -0.198485 -0.18364 -0.217596 -0.234844 -0.267334 -0.282893 -0.263264 -0.314286 -0.31062 -0.313327 -0.290316 -0.222825 -0.177516 -0.141547 -0.1092 -0.082442 -0.0770207 -0.0750294 -0.11503 -0.130591 -0.0966948 -0.0567188 -0.0402986 -0.0737804 -0.0831309 -0.0326702 -0.0244881 -0.0232873 -0.0683265 -0.17025 -0.28547 -0.314176 -0.332559 -0.287932 -0.24156 -0.277395 -0.305301 -0.28604 -0.32559 -0.351635 -0.331698 -0.326999 -0.311617 -0.292614 -0.289076 -0.316474 -0.330634 -0.359295 -0.445787 -0.46156 -0.52745 -0.616063 -0.559782 -0.636022 -0.730266 -0.732795 -0.686302 -0.71685 -0.814202 -0.834909 -0.721924 -0.695652 -0.738454 -0.616787 -0.489827 -0.431539 -0.372116 -0.340146 -0.367715 -0.346844 -0.382343 -0.37317 -0.359532 -0.304225 -0.216986 -0.205091 -0.173793 -0.121925 -0.09311 -0.133064 -0.205238 -0.251461 -0.313284 -0.384724 -0.447514 -0.491912 -0.504476 -0.488241 -0.4539 -0.367171 -0.268459 -0.222713 -0.214551 -0.207973 -0.180839
285.5225 0.00025 0.0390187 0.0405862 -0.083188 -0.146504 -0.101046 -0.201179 -0.186701 -0.221793 -0.236523 -0.265705 -0.279826 -0.262497 -0.311968 -0.307001 -0.307036 -0.288458 -0.220817 -0.174488 -0.142234 -0.109069 -0.0813967 -0.0770339 -0.0745201 -0.115663 -0.131468 -0.104261 -0.0661865 -0.0448771 -0.0763591 -0.083321 -0.0328701 -0.0207113 -0.0185414 -0.0629437 -0.165429 -0.284106 -0.312067 -0.334652 -0.294751 -0.243784 -0.276315 -0.303187 -0.281122 -0.317188 -0.34572 -0.333562 -0.328438 -0.311626 -0.295314 -0.294434 -0.31787 -0.330312 -0.355841 -0.440917 -0.462649 -0.526463 -0.61486 -0.560231 -0.625649 -0.724951 -0.736396 -0.686575 -0.714428 -0.817256 -0.842425 -0.726684 -0.693434 -0.742717 -0.630114 -0.498389 -0.436521 -0.376691 -0.344869 -0.371254 -0.343042 -0.379302 -0.371016 -0.356461 -0.30352 -0.216923 -0.202588 -0.171416 -0.121564 -0.0911604 -0.127886 -0.202294 -0.250503 -0.312443 -0.382955 -0.446281 -0.492692 -0.505261 -0.487608 -0.452932 -0.36768 -0.268778 -0.222324 -0.213598 -0.206836 -0.179668
285.525 0.00025 0.0429683 0.0443328 -0.0861822 -0.149905 -0.100141 -0.203255 -0.190429 -0.225969 -0.238354 -0.264221 -0.277104 -0.262104 -0.309289 -0.303226 -0.300669 -0.286403 -0.219319 -0.171418 -0.142218 -0.10926 -0.0804144 -0.0769663 -0.0742391 -0.116297 -0.13126 -0.111525 -0.0768558 -0.0493434 -0.0788736 -0.0835305 -0.0333104 -0.0175278 -0.0138067 -0.0575256 -0.16055 -0.28268 -0.309833 -0.335913 -0.301343 -0.246588 -0.27533 -0.300852 -0.276689 -0.309184 -0.338742 -0.335292 -0.330327 -0.311387 -0.297542 -0.299977 -0.31973 -0.330185 -0.352658 -0.435933 -0.463653 -0.525571 -0.61323 -0.561288 -0.615944 -0.718494 -0.739828 -0.687324 -0.711417 -0.819483 -0.849886 -0.731851 -0.691229 -0.745831 -0.644086 -0.507095 -0.441502 -0.381348 -0.349376 -0.375053 -0.339505 -0.376219 -0.368914 -0.353291 -0.302489 -0.216984 -0.200057 -0.169043 -0.121328 -0.0894867 -0.122827 -0.199334 -0.249493 -0.311498 -0.381263 -0.445012 -0.493342 -0.506013 -0.487005 -0.451936 -0.368183 -0.269118 -0.221947 -0.212648 -0.205685 -0.178486
285.5275 0.00025 0.0465618 0.0478651 -0.0893275 -0.153097 -0.0996108 -0.204713 -0.194802 -0.230122 -0.240429 -0.262988 -0.274733 -0.262036 -0.306552 -0.299075 -0.294309 -0.284161 -0.218186 -0.168534 -0.141342 -0.10977 -0.0796242 -0.0767729 -0.0740742 -0.116935 -0.130121 -0.118291 -0.0887142 -0.0537745 -0.0811524 -0.083979 -0.033999 -0.0150209 -0.00918716 -0.0520915 -0.155708 -0.281095 -0.307603 -0.33635 -0.307557 -0.249893 -0.274569 -0.298187 -0.272723 -0.301686 -0.33085 -0.336739 -0.332703 -0.311003 -0.299273 -0.305713 -0.322035 -0.330325 -0.349753 -0.430894 -0.46456 -0.524733 -0.611237 -0.562816 -0.607057 -0.711014 -0.742917 -0.688554 -0.707994 -0.820765 -0.857228 -0.737453 -0.689152 -0.747776 -0.658593 -0.516027 -0.44652 -0.386104 -0.353688 -0.379066 -0.336274 -0.373136 -0.36683 -0.350042 -0.301103 -0.217153 -0.197499 -0.16667 -0.121191 -0.0880901 -0.117904 -0.196341 -0.248441 -0.310442 -0.379633 -0.443705 -0.493852 -0.50672 -0.486423 -0.450908 -0.368671 -0.269475 -0.221576 -0.2117 -0.204516 -0.177287
285.53 0.00025 0.0498435 0.0510903 -0.0925125 -0.156032 -0.0996049 -0.205585 -0.199753 -0.234145 -0.242726 -0.262058 -0.272645 -0.262146 -0.303961 -0.294457 -0.287998 -0.281748 -0.217281 -0.166057 -0.13954 -0.110517 -0.0791748 -0.0764604 -0.0739512 -0.117492 -0.128283 -0.12436 -0.101603 -0.0583238 -0.0830185 -0.0848497 -0.0349258 -0.0132324 -0.00476898 -0.0465681 -0.15094 -0.27927 -0.305448 -0.335983 -0.313284 -0.253635 -0.274099 -0.295076 -0.269234 -0.294763 -0.322213 -0.337775 -0.335527 -0.310538 -0.300433 -0.311549 -0.324752 -0.330792 -0.34714 -0.425827 -0.465375 -0.52389 -0.608889 -0.564746 -0.59912 -0.702621 -0.745484 -0.690231 -0.704281 -0.821003 -0.864382 -0.743502 -0.687292 -0.748555 -0.67343 -0.525267 -0.451617 -0.390961 -0.357797 -0.383217 -0.333332 -0.370084 -0.364794 -0.346784 -0.299358 -0.217418 -0.194909 -0.164337 -0.121135 -0.0869617 -0.113148 -0.193327 -0.247373 -0.309276 -0.378062 -0.442375 -0.494237 -0.50739 -0.485873 -0.449862 -0.369152 -0.269853 -0.221216 -0.210762 -0.203335 -0.176083
285.5325 0.00025 0.0528869 0.0538439 -0.0957239 -0.158661 -0.100288 -0.2059 -0.205168 -0.237975 -0.245286 -0.261508 -0.27081 -0.262368 -0.30162 -0.289473 -0.28169 -0.279194 -0.21646 -0.164164 -0.136885 -0.111375 -0.0791732 -0.0760942 -0.0738444 -0.117782 -0.126042 -0.129591 -0.115219 -0.0631759 -0.0843812 -0.0862696 -0.0361931 -0.0121894 -0.000666447 -0.0410232 -0.146368 -0.277117 -0.303394 -0.33487 -0.318442 -0.257785 -0.274016 -0.291502 -0.266228 -0.288445 -0.313044 -0.338244 -0.33872 -0.310094 -0.301012 -0.317475 -0.327848 -0.331613 -0.344796 -0.420733 -0.466101 -0.523011 -0.606228 -0.566949 -0.592222 -0.693499 -0.747388 -0.692387 -0.700521 -0.820152 -0.871306 -0.749968 -0.685672 -0.74813 -0.688401 -0.534882 -0.4568 -0.395842 -0.361748 -0.38746 -0.330719 -0.367055 -0.362777 -0.343515 -0.297252 -0.217735 -0.192284 -0.16204 -0.121133 -0.0860795 -0.108566 -0.19027 -0.246301 -0.308003 -0.376533 -0.441027 -0.49449 -0.508016 -0.485349 -0.448795 -0.369618 -0.270244 -0.220859 -0.209828 -0.202139 -0.174867
285.535 0.00025 0.0556663 0.0561078 -0.0989188 -0.160999 -0.101709 -0.205779 -0.210845 -0.241575 -0.248195 -0.261406 -0.269285 -0.26265 -0.299527 -0.284284 -0.275338 -0.276505 -0.215615 -0.162911 -0.133518 -0.112179 -0.0796746 -0.0757303 -0.0737329 -0.117617 -0.123737 -0.133955 -0.129146 -0.0685651 -0.0852139 -0.0881756 -0.0378511 -0.0119124 0.00304467 -0.0354284 -0.142012 -0.274608 -0.301509 -0.333114 -0.32295 -0.262267 -0.274353 -0.28744 -0.263681 -0.282725 -0.303573 -0.338056 -0.342158 -0.309693 -0.301007 -0.323417 -0.331248 -0.332824 -0.342733 -0.415647 -0.466743 -0.522081 -0.603236 -0.56933 -0.586402 -0.68383 -0.748496 -0.694868 -0.696797 -0.818207 -0.877886 -0.756874 -0.684391 -0.746594 -0.703274 -0.545022 -0.462147 -0.400789 -0.365571 -0.391713 -0.328409 -0.364089 -0.360801 -0.340297 -0.294786 -0.21812 -0.189673 -0.159809 -0.121173 -0.0854492 -0.104197 -0.187179 -0.245241 -0.306634 -0.375041 -0.439673 -0.494623 -0.508596 -0.484853 -0.447715 -0.370075 -0.27066 -0.220515 -0.208909 -0.200936 -0.17365
285.5375 0.00025 0.0581365 0.0578438 -0.102042 -0.163092 -0.103873 -0.205353 -0.216659 -0.244999 -0.251413 -0.261799 -0.268068 -0.262914 -0.297617 -0.279073 -0.26887 -0.273681 -0.2147 -0.162306 -0.129647 -0.112802 -0.0806714 -0.0754854 -0.0736622 -0.11679 -0.12163 -0.137448 -0.142914 -0.0746993 -0.0856049 -0.0904256 -0.0399945 -0.0123975 0.00626898 -0.0298378 -0.137904 -0.271723 -0.299753 -0.33087 -0.32674 -0.267026 -0.275075 -0.282925 -0.261504 -0.277567 -0.294047 -0.337188 -0.34574 -0.309391 -0.300457 -0.329271 -0.334967 -0.334443 -0.340975 -0.410583 -0.467313 -0.521049 -0.599928 -0.571805 -0.581676 -0.67385 -0.748741 -0.697579 -0.693292 -0.815205 -0.884007 -0.764131 -0.683478 -0.743983 -0.71776 -0.555738 -0.467678 -0.405763 -0.369302 -0.395935 -0.326415 -0.361215 -0.358882 -0.337133 -0.291941 -0.2185 -0.187069 -0.157658 -0.121243 -0.0850499 -0.100052 -0.184038 -0.244198 -0.305171 -0.37357 -0.438317 -0.494635 -0.509135 -0.484386 -0.446625 -0.370526 -0.271102 -0.220183 -0.208006 -0.199726 -0.172423
285.54 0.00025 0.0602905 0.0590084 -0.105058 -0.164914 -0.106821 -0.204773 -0.222409 -0.248313 -0.254893 -0.262723 -0.267247 -0.263188 -0.295827 -0.274026 -0.262243 -0.270679 -0.213739 -0.162235 -0.12553 -0.113162 -0.082077 -0.0754867 -0.073654 -0.115167 -0.119924 -0.140188 -0.156052 -0.0817375 -0.0857171 -0.0928555 -0.0426767 -0.0136821 0.00894113 -0.0243781 -0.134005 -0.268488 -0.298121 -0.32821 -0.329733 -0.272027 -0.276163 -0.278037 -0.259678 -0.272898 -0.284693 -0.335603 -0.349333 -0.309217 -0.299443 -0.334983 -0.338951 -0.336504 -0.339564 -0.405529 -0.467845 -0.519923 -0.596307 -0.574257 -0.578014 -0.663768 -0.748075 -0.700365 -0.690176 -0.811225 -0.889542 -0.771773 -0.683054 -0.740371 -0.731573 -0.567172 -0.473392 -0.410761 -0.373003 -0.400069 -0.324721 -0.358422 -0.357018 -0.33405 -0.288779 -0.218865 -0.184463 -0.15559 -0.121309 -0.0848503 -0.0961375 -0.180843 -0.243173 -0.303628 -0.372104 -0.436965 -0.494532 -0.509626 -0.483947 -0.445526 -0.37096 -0.271563 -0.219861 -0.207119 -0.198511 -0.171198
285.5425 0.00025 0.0621665 0.0595625 -0.107955 -0.166353 -0.110549 -0.204121 -0.227873 -0.251641 -0.258587 -0.264167 -0.26688 -0.263411 -0.294041 -0.269244 -0.255493 -0.267399 -0.212801 -0.162537 -0.121398 -0.113247 -0.0837279 -0.0758082 -0.0737387 -0.112693 -0.118668 -0.142354 -0.168146 -0.0897467 -0.0857636 -0.0953065 -0.0459231 -0.0158209 0.0109729 -0.0190939 -0.130221 -0.264961 -0.29652 -0.325239 -0.331899 -0.277209 -0.277532 -0.272921 -0.258093 -0.268649 -0.27569 -0.333308 -0.352765 -0.309177 -0.298037 -0.340458 -0.34318 -0.338976 -0.338536 -0.400526 -0.468309 -0.51868 -0.592386 -0.576618 -0.575318 -0.653775 -0.746454 -0.703085 -0.68753 -0.806388 -0.894377 -0.779809 -0.683146 -0.735881 -0.744468 -0.579359 -0.47932 -0.415805 -0.376688 -0.404068 -0.323331 -0.355723 -0.355228 -0.331057 -0.285298 -0.219164 -0.181875 -0.153625 -0.121376 -0.084841 -0.0924894 -0.177611 -0.242179 -0.302024 -0.370639 -0.435623 -0.49432 -0.510066 -0.483536 -0.444422 -0.371385 -0.27205 -0.219551 -0.206251 -0.197291 -0.16997
285.545 0.00025 0.063763 0.0595227 -0.11086 -0.167279 -0.115039 -0.20358 -0.232938 -0.255073 -0.262441 -0.266092 -0.267074 -0.263605 -0.292251 -0.264753 -0.248735 -0.263745 -0.211923 -0.16301 -0.117453 -0.113097 -0.0854689 -0.0765085 -0.0739714 -0.109419 -0.117821 -0.144139 -0.178823 -0.0987118 -0.0860836 -0.0976694 -0.0496303 -0.0188497 0.012326 -0.0140405 -0.126445 -0.261209 -0.294896 -0.322054 -0.333187 -0.2825 -0.279106 -0.26769 -0.2567 -0.264786 -0.267215 -0.330353 -0.35588 -0.309256 -0.29635 -0.345604 -0.347627 -0.341835 -0.337929 -0.395559 -0.468729 -0.517356 -0.588183 -0.578847 -0.573543 -0.644071 -0.743993 -0.705564 -0.68544 -0.800836 -0.898351 -0.788147 -0.683847 -0.730666 -0.756175 -0.59244 -0.485487 -0.4209 -0.380382 -0.40792 -0.322231 -0.353124 -0.35353 -0.328169 -0.281541 -0.219375 -0.179325 -0.151791 -0.12144 -0.0850033 -0.089125 -0.174344 -0.241213 -0.300374 -0.369159 -0.434293 -0.494003 -0.510453 -0.483147 -0.443317 -0.371799 -0.272562 -0.219254 -0.205405 -0.196067 -0.168741
285.5475 0.00025 0.0650773 0.0589736 -0.113798 -0.167616 -0.1202 -0.203314 -0.237416 -0.258719 -0.266451 -0.268418 -0.267888 -0.263729 -0.290455 -0.260538 -0.242119 -0.259656 -0.211098 -0.163466 -0.113872 -0.112812 -0.0871846 -0.0775978 -0.0744051 -0.105516 -0.117246 -0.145787 -0.187809 -0.108489 -0.0869171 -0.0998389 -0.0536388 -0.0228055 0.0129126 -0.00926949 -0.12256 -0.257326 -0.29317 -0.318708 -0.333606 -0.287837 -0.280793 -0.262474 -0.255415 -0.261232 -0.259434 -0.326802 -0.358557 -0.309453 -0.29446 -0.350332 -0.352241 -0.345041 -0.337784 -0.390632 -0.469088 -0.515931 -0.583719 -0.580857 -0.572566 -0.634808 -0.740748 -0.707632 -0.683956 -0.79477 -0.901401 -0.796806 -0.685165 -0.724794 -0.766422 -0.60638 -0.491906 -0.426087 -0.384123 -0.411622 -0.321411 -0.350584 -0.351936 -0.325394 -0.277526 -0.219436 -0.176825 -0.150094 -0.121496 -0.0853048 -0.0860379 -0.171048 -0.240262 -0.298694 -0.367659 -0.432981 -0.49359 -0.510789 -0.482787 -0.442212 -0.372202 -0.273098 -0.21897 -0.204585 -0.194846 -0.167511
285.55 0.00025 0.0661394 0.057826 -0.11679 -0.167278 -0.125871 -0.203492 -0.241129 -0.262614 -0.270572 -0.271017 -0.269309 -0.263797 -0.288675 -0.256588 -0.23585 -0.255115 -0.210285 -0.16376 -0.110745 -0.112475 -0.0888514 -0.079011 -0.0750555 -0.101291 -0.11676 -0.147493 -0.19493 -0.118909 -0.0885266 -0.101806 -0.0578686 -0.0276334 0.0126149 -0.0048623 -0.118453 -0.253369 -0.291291 -0.315303 -0.333168 -0.293126 -0.282575 -0.257402 -0.254156 -0.257937 -0.25242 -0.322747 -0.36069 -0.309744 -0.292489 -0.354562 -0.35702 -0.34858 -0.338165 -0.385784 -0.469345 -0.514395 -0.579031 -0.582567 -0.572265 -0.626116 -0.736831 -0.709164 -0.683074 -0.788329 -0.903408 -0.805716 -0.68722 -0.718487 -0.775032 -0.621183 -0.498607 -0.43138 -0.387905 -0.415108 -0.320855 -0.348117 -0.350459 -0.322729 -0.273324 -0.219305 -0.174358 -0.148533 -0.121553 -0.0857355 -0.0832408 -0.167721 -0.239316 -0.297008 -0.366123 -0.43169 -0.493087 -0.511071 -0.482453 -0.441113 -0.372596 -0.273664 -0.218704 -0.203791 -0.19363 -0.166285
285.5525 0.00025 0.0668726 0.0560324 -0.119875 -0.166357 -0.131922 -0.204305 -0.244004 -0.26677 -0.274848 -0.273902 -0.271257 -0.263865 -0.286942 -0.252851 -0.230049 -0.250165 -0.2094 -0.163822 -0.10805 -0.112088 -0.0904819 -0.0806595 -0.0758401 -0.0970708 -0.116191 -0.149373 -0.200135 -0.129745 -0.0911009 -0.103609 -0.0621728 -0.0332188 0.0113298 -0.000852735 -0.11403 -0.249401 -0.289191 -0.311834 -0.331963 -0.298254 -0.284368 -0.252566 -0.252885 -0.254841 -0.246187 -0.318288 -0.362183 -0.31009 -0.290529 -0.358224 -0.361887 -0.352372 -0.339086 -0.381048 -0.469503 -0.512773 -0.57414 -0.583939 -0.572575 -0.618081 -0.732364 -0.710082 -0.682742 -0.781703 -0.90434 -0.814863 -0.69003 -0.711891 -0.781804 -0.636761 -0.505638 -0.436793 -0.391718 -0.418418 -0.320576 -0.345702 -0.349119 -0.32018 -0.268978 -0.21895 -0.171959 -0.147132 -0.121623 -0.0862687 -0.0807356 -0.164393 -0.238368 -0.295336 -0.364551 -0.430416 -0.492502 -0.5113 -0.482143 -0.440022 -0.372979 -0.274256 -0.218454 -0.203024 -0.192418 -0.165065
285.555 0.00025 0.0672731 0.0535153 -0.122994 -0.164936 -0.13827 -0.205838 -0.245948 -0.271104 -0.27926 -0.277073 -0.273601 -0.264018 -0.285293 -0.249316 -0.224771 -0.244908 -0.208344 -0.163624 -0.105776 -0.111605 -0.0921753 -0.0824749 -0.0767032 -0.0932151 -0.115439 -0.151427 -0.203504 -0.140712 -0.0947399 -0.105349 -0.0665375 -0.0393708 0.00893207 0.00265001 -0.109271 -0.245423 -0.286878 -0.308344 -0.330082 -0.303078 -0.286141 -0.248069 -0.251578 -0.251962 -0.240764 -0.313574 -0.362954 -0.310445 -0.288669 -0.36127 -0.366826 -0.35638 -0.340558 -0.376496 -0.469536 -0.511084 -0.569153 -0.584916 -0.573408 -0.610767 -0.72748 -0.710295 -0.682893 -0.775059 -0.904168 -0.824147 -0.69358 -0.705153 -0.786686 -0.652988 -0.513033 -0.442376 -0.395559 -0.421541 -0.320524 -0.343322 -0.347922 -0.317737 -0.264557 -0.21835 -0.16962 -0.145875 -0.121714 -0.0868809 -0.0785217 -0.161088 -0.237404 -0.293697 -0.362934 -0.429166 -0.491839 -0.511471 -0.481856 -0.438939 -0.373352 -0.274876 -0.218222 -0.202287 -0.191211 -0.163851
285.5575 0.00025 0.0672827 0.0503385 -0.126054 -0.16315 -0.144799 -0.20815 -0.247058 -0.275568 -0.283803 -0.280623 -0.276186 -0.264329 -0.28378 -0.246015 -0.220055 -0.239498 -0.207049 -0.163216 -0.103869 -0.110942 -0.0939928 -0.0844589 -0.0775536 -0.0899439 -0.114546 -0.15354 -0.205277 -0.151495 -0.0995026 -0.107116 -0.0709502 -0.0458542 0.00536325 0.00558499 -0.104191 -0.241377 -0.284318 -0.304832 -0.327644 -0.307492 -0.287926 -0.243918 -0.250255 -0.249273 -0.236145 -0.308757 -0.362948 -0.310766 -0.286989 -0.363689 -0.371776 -0.36054 -0.342588 -0.372191 -0.469391 -0.509329 -0.564102 -0.585453 -0.574694 -0.604222 -0.722296 -0.709833 -0.683382 -0.768537 -0.902908 -0.833495 -0.697915 -0.698527 -0.789599 -0.669644 -0.520867 -0.448178 -0.399447 -0.424513 -0.320713 -0.34095 -0.346864 -0.315385 -0.260094 -0.217431 -0.167341 -0.144765 -0.121836 -0.0875551 -0.0765808 -0.157801 -0.236401 -0.292109 -0.361263 -0.427929 -0.491105 -0.511584 -0.481584 -0.437863 -0.37371 -0.275518 -0.218007 -0.201575 -0.190009 -0.162637
285.56 0.00025 0.0668553 0.0465695 -0.128998 -0.161098 -0.151395 -0.211211 -0.24737 -0.28007 -0.288486 -0.284709 -0.278882 -0.264889 -0.282464 -0.242981 -0.215858 -0.23408 -0.205442 -0.162603 -0.102265 -0.109988 -0.0959474 -0.086656 -0.0782794 -0.0873566 -0.11368 -0.155492 -0.205821 -0.16179 -0.105385 -0.109111 -0.0753691 -0.052398 0.00062228 0.00780284 -0.0988034 -0.237167 -0.281512 -0.301315 -0.324791 -0.311357 -0.28969 -0.240186 -0.248856 -0.246766 -0.232246 -0.303926 -0.362107 -0.31098 -0.285568 -0.365434 -0.376639 -0.364816 -0.345158 -0.368183 -0.469016 -0.507512 -0.559038 -0.585492 -0.576338 -0.598445 -0.716894 -0.7087 -0.684068 -0.762313 -0.900612 -0.842789 -0.703055 -0.691994 -0.790521 -0.686448 -0.529139 -0.454177 -0.403334 -0.427346 -0.321131 -0.338574 -0.345972 -0.313145 -0.25567 -0.21619 -0.165133 -0.143805 -0.122016 -0.08828 -0.0749003 -0.15457 -0.235357 -0.290588 -0.359545 -0.426712 -0.490308 -0.511641 -0.481331 -0.436801 -0.374058 -0.276188 -0.217815 -0.200898 -0.188821 -0.161427
285.5625 0.00025 0.0659742 0.0422103 -0.131765 -0.158959 -0.157957 -0.214927 -0.24706 -0.284517 -0.293317 -0.289387 -0.281642 -0.265738 -0.281373 -0.240238 -0.212162 -0.228813 -0.203494 -0.161822 -0.100929 -0.108605 -0.098003 -0.0891802 -0.0788877 -0.0853974 -0.113071 -0.157058 -0.205522 -0.17131 -0.112331 -0.111485 -0.0797913 -0.05889 -0.00524556 0.00918158 -0.0931828 -0.2327 -0.278478 -0.297764 -0.321694 -0.314568 -0.291457 -0.236904 -0.24738 -0.24444 -0.229055 -0.299264 -0.360481 -0.311034 -0.284435 -0.366547 -0.381369 -0.369148 -0.348241 -0.364596 -0.468406 -0.505637 -0.554023 -0.585054 -0.578279 -0.59344 -0.711341 -0.706955 -0.684778 -0.756517 -0.897345 -0.851937 -0.708995 -0.685805 -0.78957 -0.703085 -0.537989 -0.460433 -0.407208 -0.429982 -0.321739 -0.336184 -0.345225 -0.310957 -0.251299 -0.214605 -0.163001 -0.142987 -0.122276 -0.0890431 -0.0734731 -0.151408 -0.23425 -0.289157 -0.357778 -0.425512 -0.489456 -0.511641 -0.481101 -0.435759 -0.3744 -0.276887 -0.217646 -0.200253 -0.187647 -0.160229
285.565 0.00025 0.0646712 0.0372774 -0.134274 -0.156896 -0.164364 -0.219254 -0.246251 -0.288769 -0.298294 -0.29471 -0.284478 -0.266888 -0.280561 -0.237855 -0.208944 -0.223807 -0.201212 -0.160928 -0.0998625 -0.106698 -0.100049 -0.0921275 -0.0794215 -0.0838856 -0.112935 -0.158032 -0.204769 -0.17986 -0.120157 -0.114373 -0.0842167 -0.0651846 -0.0120814 0.00956791 -0.0874329 -0.227886 -0.275206 -0.294174 -0.318446 -0.317064 -0.293208 -0.23413 -0.245824 -0.242296 -0.226463 -0.294813 -0.358068 -0.310883 -0.28366 -0.36705 -0.385853 -0.373488 -0.351798 -0.361504 -0.46754 -0.503708 -0.549096 -0.584146 -0.580471 -0.589219 -0.705726 -0.704674 -0.685343 -0.751207 -0.893233 -0.860862 -0.715737 -0.680099 -0.786809 -0.719159 -0.547435 -0.466905 -0.411049 -0.432508 -0.322586 -0.333795 -0.34465 -0.308866 -0.24708 -0.212654 -0.160925 -0.142294 -0.122628 -0.0898339 -0.0722707 -0.148333 -0.233074 -0.287823 -0.355963 -0.424322 -0.488556 -0.511585 -0.480886 -0.434735 -0.374726 -0.277613 -0.2175 -0.199643 -0.186491 -0.159042
285.5675 0.00025 0.0629294 0.0318254 -0.1365 -0.155036 -0.170499 -0.224118 -0.245122 -0.292727 -0.303404 -0.300652 -0.287485 -0.268292 -0.280059 -0.235854 -0.206171 -0.219161 -0.198617 -0.159924 -0.0990984 -0.104152 -0.101919 -0.0955667 -0.0800739 -0.0826297 -0.113406 -0.158305 -0.20386 -0.187321 -0.128668 -0.117922 -0.0886735 -0.0711735 -0.0196164 0.0088277 -0.0816548 -0.222685 -0.271696 -0.290506 -0.315145 -0.318788 -0.294924 -0.231904 -0.244175 -0.240334 -0.224468 -0.290648 -0.354952 -0.310483 -0.283278 -0.366954 -0.390021 -0.377843 -0.3558 -0.358982 -0.466397 -0.501743 -0.544301 -0.582756 -0.582792 -0.585766 -0.700108 -0.701915 -0.685623 -0.746447 -0.888395 -0.86938 -0.723239 -0.674907 -0.782467 -0.734359 -0.557579 -0.473665 -0.414903 -0.434874 -0.323601 -0.331378 -0.344212 -0.306832 -0.243021 -0.210352 -0.158929 -0.141737 -0.123095 -0.0906538 -0.071278 -0.145369 -0.23182 -0.286592 -0.354104 -0.423139 -0.487613 -0.511473 -0.480686 -0.433731 -0.375042 -0.278367 -0.21738 -0.199067 -0.185348 -0.157858
285.57 0.00025 0.0606933 0.0259051 -0.138456 -0.153554 -0.176183 -0.229381 -0.24383 -0.296344 -0.308593 -0.307136 -0.290718 -0.26987 -0.279884 -0.234286 -0.203813 -0.214975 -0.195748 -0.158845 -0.0986651 -0.100942 -0.103418 -0.0994086 -0.0811444 -0.0814513 -0.114463 -0.157912 -0.202977 -0.19365 -0.13764 -0.122255 -0.0931785 -0.0768407 -0.0276226 0.00681281 -0.0759864 -0.217062 -0.267934 -0.286751 -0.311836 -0.319746 -0.296578 -0.230302 -0.242375 -0.238507 -0.222989 -0.286757 -0.351242 -0.309796 -0.283318 -0.366322 -0.393782 -0.382153 -0.360158 -0.35711 -0.464985 -0.499758 -0.539652 -0.580926 -0.585196 -0.583065 -0.694517 -0.698788 -0.685499 -0.742282 -0.882955 -0.877453 -0.73148 -0.670401 -0.776698 -0.748286 -0.568437 -0.48071 -0.418721 -0.437144 -0.324815 -0.328964 -0.343916 -0.304836 -0.239163 -0.207678 -0.156981 -0.141283 -0.123693 -0.0915034 -0.0704732 -0.142526 -0.230487 -0.285471 -0.352215 -0.42196 -0.486637 -0.511306 -0.480499 -0.432751 -0.37535 -0.279148 -0.21729 -0.198527 -0.184229 -0.156688
285.5725 0.00025 0.0579999 0.019601 -0.140114 -0.152555 -0.181304 -0.235002 -0.242624 -0.299508 -0.313851 -0.314145 -0.294221 -0.27159 -0.280119 -0.233164 -0.201847 -0.211333 -0.192618 -0.157751 -0.0985811 -0.0971373 -0.104348 -0.103498 -0.0829902 -0.0802782 -0.11596 -0.156995 -0.202214 -0.198932 -0.146813 -0.127356 -0.0977873 -0.0821801 -0.035879 0.00346504 -0.0705339 -0.210971 -0.263902 -0.282881 -0.308576 -0.31994 -0.29813 -0.229352 -0.240445 -0.236841 -0.222025 -0.283142 -0.347041 -0.308802 -0.283759 -0.365239 -0.397041 -0.386416 -0.364815 -0.355951 -0.463323 -0.497765 -0.53518 -0.578701 -0.587586 -0.581068 -0.688948 -0.695382 -0.684896 -0.738657 -0.877051 -0.884916 -0.740418 -0.666628 -0.7697 -0.760602 -0.580028 -0.48805 -0.422554 -0.439293 -0.326218 -0.326563 -0.343757 -0.302918 -0.235551 -0.204651 -0.155073 -0.140915 -0.124436 -0.0923826 -0.069826 -0.13981 -0.229064 -0.284457 -0.350299 -0.42077 -0.485626 -0.51108 -0.480321 -0.431789 -0.375642 -0.27995 -0.217225 -0.198023 -0.183128 -0.155525