285.5025 0.00025 0.0991413 0.128232 0.0380006 -0.0277036 0.145293 0.215813 0.153368 0.0343578 0.0686755 -0.0327996 -0.0827336 -0.108674 -0.269464 -0.225861 -0.170212 -0.0853432 -0.0759809 -0.0725245 -0.0399216 0.0335459 0.0985214 0.32528 0.438366 0.43091 0.403328 0.413098 0.476898 0.519329 0.409786 0.276374 0.102353 0.0508254 0.0379488 -0.01113 -0.072016 -0.11557 -0.133947 -0.0458992 -0.0206079 -0.00518385 -0.0350809 -0.0224471 -0.0375404 -0.0355259 -0.0506564 -0.0443263 -0.0580166 -0.0733457 -0.0531291 0.0931621 0.258442 0.52255 0.706243 0.808481 0.802026 0.737985 0.564345 0.433098 0.265544 0.179271 0.177437 0.154341 0.0934254 -0.00469435 -0.0806779 -0.105048 -0.208053 -0.220116 -0.200263 -0.255413 -0.343989 -0.353915 -0.342046 -0.348391 -0.295988 -0.257913 -0.22828 -0.226607 -0.275887 -0.27703 -0.243415 -0.280377 -0.33013 -0.310772 -0.278751 -0.21296 -0.11858 -0.132455 -0.104479 -0.0822334 -0.0710208 -0.107788 -0.143987 -0.159449 -0.178396 -0.211877 -0.218767 -0.262777 -0.259847 -0.274692
285.505 0.00025 0.0956706 0.123755 0.0278163 -0.0307632 0.151162 0.217639 0.151457 0.0338609 0.0656688 -0.0369826 -0.0877444 -0.111646 -0.269515 -0.23883 -0.17715 -0.0825711 -0.0707567 -0.074558 -0.0434683 0.03398 0.109557 0.329844 0.432318 0.427793 0.400487 0.405182 0.465432 0.509218 0.40161 0.269624 0.0966179 0.0483652 0.0350396 -0.0164028 -0.0725405 -0.111101 -0.132274 -0.0468669 -0.0156376 -0.000808675 -0.0333034 -0.0207116 -0.0372928 -0.0371381 -0.0523271 -0.0468412 -0.0609089 -0.0759132 -0.0526834 0.0890984 0.251906 0.518445 0.7037 0.813135 0.809529 0.747639 0.577374 0.440069 0.273703 0.184956 0.17757 0.158197 0.110821 0.0200722 -0.0637193 -0.0909495 -0.200817 -0.221607 -0.198701 -0.250381 -0.339856 -0.354345 -0.344596 -0.350207 -0.298772 -0.26054 -0.230583 -0.228526 -0.278368 -0.281548 -0.245581 -0.278956 -0.329856 -0.311699 -0.279816 -0.214088 -0.119393 -0.13236 -0.103978 -0.0801067 -0.0701791 -0.1074 -0.144057 -0.160138 -0.179488 -0.211179 -0.216489 -0.262028 -0.25885 -0.273954
285.5075 0.00025 0.0912964 0.118678 0.0185467 -0.03313 0.155081 0.217442 0.148446 0.0331017 0.0614806 -0.0422183 -0.0934798 -0.115882 -0.269691 -0.250164 -0.184001 -0.0793626 -0.0647959 -0.0761667 -0.0476516 0.0344522 0.120401 0.333694 0.426517 0.42454 0.398197 0.397399 0.454385 0.497812 0.39205 0.263078 0.0912506 0.0463717 0.0327317 -0.0214464 -0.0734273 -0.106767 -0.130054 -0.0486748 -0.0112316 0.00373529 -0.0305632 -0.0193183 -0.0367856 -0.0384645 -0.0534097 -0.0492127 -0.06403 -0.078378 -0.0522754 0.0851566 0.245636 0.513981 0.700169 0.816975 0.817464 0.75745 0.590725 0.446889 0.281953 0.190892 0.177698 0.160639 0.126422 0.0443071 -0.046044 -0.0768225 -0.192665 -0.223001 -0.197263 -0.245177 -0.335034 -0.354431 -0.347212 -0.352 -0.301448 -0.263211 -0.232968 -0.230474 -0.280699 -0.286027 -0.247988 -0.277751 -0.329377 -0.312598 -0.280766 -0.21517 -0.120407 -0.132286 -0.103534 -0.0779485 -0.0693258 -0.10702 -0.144127 -0.160785 -0.180564 -0.210523 -0.214261 -0.261296 -0.257855 -0.27322
285.51 0.00025 0.0861454 0.113518 0.0103531 -0.0344818 0.156465 0.214989 0.144262 0.0319297 0.0560934 -0.0485243 -0.100216 -0.12087 -0.270666 -0.259632 -0.191159 -0.0761827 -0.0578731 -0.0778433 -0.052056 0.0352317 0.130696 0.336764 0.421251 0.420987 0.396331 0.389964 0.443839 0.485334 0.381103 0.256624 0.0862219 0.0446423 0.030989 -0.0261579 -0.074746 -0.102656 -0.127384 -0.0512927 -0.00752918 0.00836034 -0.0267973 -0.0182923 -0.0360983 -0.0396307 -0.0538872 -0.0514311 -0.0673297 -0.0807137 -0.0519587 0.0814333 0.23975 0.50922 0.695633 0.820032 0.825881 0.767542 0.6044 0.453693 0.290304 0.197205 0.177961 0.161714 0.14022 0.0677417 -0.0277573 -0.0627084 -0.183629 -0.224186 -0.196106 -0.239866 -0.329574 -0.354114 -0.349876 -0.353769 -0.30398 -0.265917 -0.235441 -0.232451 -0.282887 -0.290429 -0.250623 -0.276787 -0.328699 -0.313449 -0.28161 -0.21621 -0.121613 -0.132233 -0.103135 -0.0757617 -0.0684493 -0.106645 -0.14419 -0.161398 -0.181633 -0.20992 -0.21209 -0.26057 -0.256864 -0.27249
285.5125 0.00025 0.0802849 0.108718 0.00333624 -0.0345261 0.154855 0.210185 0.138709 0.0307134 0.0498128 -0.0558318 -0.10784 -0.126673 -0.272263 -0.267142 -0.198746 -0.0735479 -0.0498725 -0.0798765 -0.0562291 0.0365618 0.140323 0.339136 0.416645 0.417065 0.394807 0.383119 0.433645 0.47195 0.368756 0.250074 0.0816034 0.0431059 0.0297388 -0.030484 -0.0763863 -0.0988674 -0.124418 -0.0545324 -0.00472823 0.012914 -0.0221772 -0.0176613 -0.0351569 -0.0405914 -0.0538178 -0.0534549 -0.070723 -0.0829237 -0.0518468 0.0779555 0.234128 0.504207 0.690124 0.822234 0.834669 0.777892 0.618348 0.460449 0.298712 0.203968 0.178451 0.161679 0.152234 0.0901705 -0.00887035 -0.0486096 -0.173832 -0.225065 -0.195214 -0.234456 -0.323539 -0.353362 -0.352575 -0.355569 -0.30636 -0.268642 -0.238021 -0.234455 -0.284941 -0.294737 -0.253484 -0.276074 -0.327836 -0.314253 -0.28238 -0.217207 -0.123009 -0.132211 -0.102799 -0.0735494 -0.0675401 -0.106265 -0.144245 -0.161971 -0.182679 -0.209354 -0.209976 -0.259853 -0.255877 -0.271766
285.515 0.00025 0.0735254 0.104292 -0.00250122 -0.0328559 0.149922 0.203574 0.131993 0.0295777 0.0430741 -0.0640351 -0.116234 -0.133001 -0.273949 -0.272988 -0.206612 -0.0717434 -0.0410617 -0.0822701 -0.0601248 0.0385535 0.149139 0.340811 0.412695 0.412717 0.393524 0.377111 0.423798 0.458001 0.355171 0.243102 0.0774197 0.0416764 0.0289805 -0.0343258 -0.0783078 -0.0954073 -0.121232 -0.0582299 -0.00281776 0.0173563 -0.0167393 -0.0172123 -0.0340255 -0.0412966 -0.0532152 -0.0551144 -0.0741418 -0.0849845 -0.0519482 0.0748269 0.22886 0.498984 0.683701 0.823522 0.843727 0.788566 0.632638 0.467238 0.307068 0.211098 0.179177 0.160709 0.162573 0.111398 0.0104433 -0.0346382 -0.163306 -0.225523 -0.194646 -0.229013 -0.316988 -0.352129 -0.355277 -0.357417 -0.308577 -0.271371 -0.240705 -0.236475 -0.286852 -0.298937 -0.256547 -0.275613 -0.326809 -0.314975 -0.283073 -0.218146 -0.124565 -0.132215 -0.102518 -0.0713187 -0.0665876 -0.105888 -0.144293 -0.162505 -0.1837 -0.208825 -0.207917 -0.259142 -0.254889 -0.271039
285.5175 0.00025 0.0658286 0.100724 -0.00698522 -0.0291062 0.141624 0.195493 0.123991 0.0285633 0.0361429 -0.0730558 -0.125019 -0.139955 -0.275018 -0.277461 -0.214384 -0.0708361 -0.0318887 -0.0848777 -0.0638715 0.0411506 0.15709 0.341699 0.409282 0.407996 0.392507 0.372051 0.414228 0.443616 0.34048 0.235479 0.0736809 0.0403623 0.0285775 -0.0376736 -0.0803893 -0.0923765 -0.118006 -0.0622185 -0.00197608 0.0215779 -0.010619 -0.0168408 -0.0327314 -0.0417639 -0.052246 -0.0564473 -0.077542 -0.0869701 -0.0522901 0.0720425 0.223916 0.493554 0.676448 0.823915 0.853002 0.799501 0.647176 0.474066 0.31532 0.218742 0.180289 0.158984 0.171243 0.13121 0.0300371 -0.0206477 -0.152089 -0.225428 -0.194376 -0.22355 -0.309958 -0.350369 -0.357951 -0.359359 -0.310636 -0.274102 -0.243509 -0.238512 -0.288632 -0.303005 -0.259811 -0.275408 -0.325638 -0.315598 -0.283694 -0.219031 -0.126265 -0.132253 -0.102296 -0.0690819 -0.0656005 -0.105512 -0.144341 -0.16302 -0.184696 -0.20834 -0.205919 -0.258447 -0.253907 -0.270318
285.52 0.00025 0.057614 0.0980766 -0.0101216 -0.0232594 0.130246 0.185857 0.11487 0.0276826 0.0294581 -0.0826057 -0.13373 -0.147489 -0.275172 -0.280757 -0.221531 -0.0707892 -0.0227391 -0.087187 -0.0676499 0.04422 0.164341 0.341708 0.406151 0.402953 0.391757 0.36802 0.404914 0.429062 0.324946 0.226977 0.0704134 0.0391655 0.0284615 -0.0405121 -0.0824778 -0.0898256 -0.114769 -0.0663979 -0.00218875 0.0255614 -0.00400081 -0.0164641 -0.031394 -0.0418491 -0.0508908 -0.0573257 -0.0808707 -0.0888277 -0.0529438 0.0694805 0.219325 0.487931 0.66846 0.823358 0.862366 0.810692 0.661923 0.480962 0.323455 0.226854 0.181803 0.156677 0.178387 0.14968 0.0496825 -0.00673436 -0.140391 -0.224711 -0.194404 -0.218126 -0.30255 -0.34808 -0.360575 -0.361398 -0.312541 -0.276834 -0.246444 -0.240579 -0.290283 -0.306934 -0.263251 -0.27545 -0.324353 -0.316099 -0.284264 -0.219877 -0.128113 -0.132343 -0.10214 -0.0668484 -0.0645773 -0.105136 -0.144384 -0.163511 -0.185662 -0.207899 -0.203981 -0.257758 -0.252927 -0.2696
285.5225 0.00025 0.0488511 0.0960832 -0.0119179 -0.0158419 0.116538 0.174574 0.104927 0.0268913 0.0232241 -0.0923746 -0.141889 -0.155849 -0.274408 -0.283084 -0.227565 -0.0714875 -0.0138324 -0.0886727 -0.071545 0.0474042 0.171071 0.34068 0.402941 0.397702 0.391342 0.3651 0.39583 0.414441 0.308896 0.217402 0.0675933 0.0381125 0.0285189 -0.0428132 -0.0843855 -0.0878248 -0.111619 -0.0705886 -0.00349847 0.0292272 0.00293448 -0.0159446 -0.0301057 -0.0415823 -0.0493527 -0.0576216 -0.0840611 -0.0905372 -0.0538615 0.0672256 0.215075 0.482123 0.659879 0.821907 0.87171 0.822224 0.676946 0.487914 0.33142 0.235386 0.183875 0.153954 0.183948 0.166695 0.0692305 0.00706805 -0.12821 -0.223258 -0.194705 -0.212819 -0.29484 -0.345262 -0.363101 -0.363574 -0.3143 -0.279549 -0.249493 -0.242653 -0.291819 -0.310698 -0.266845 -0.275737 -0.322989 -0.316461 -0.284786 -0.220679 -0.130081 -0.132489 -0.102047 -0.0646385 -0.0635028 -0.104757 -0.144428 -0.163974 -0.186595 -0.207499 -0.202104 -0.257084 -0.25195 -0.268884
285.525 0.00025 0.0398978 0.0944273 -0.012132 -0.00725612 0.101359 0.161395 0.0939861 0.0262159 0.0176933 -0.101972 -0.149479 -0.165042 -0.272971 -0.284419 -0.23222 -0.0728849 -0.00519036 -0.0891465 -0.0753478 0.0503097 0.177544 0.338583 0.3993 0.392379 0.391258 0.363208 0.386991 0.399861 0.292648 0.2067 0.065166 0.0372364 0.0286697 -0.044627 -0.0860021 -0.0864552 -0.108633 -0.074637 -0.00589499 0.0325301 0.00997277 -0.0152004 -0.0290198 -0.0408397 -0.0476513 -0.057233 -0.0870636 -0.0921487 -0.0551424 0.0652167 0.211222 0.476114 0.6508 0.819603 0.880936 0.834105 0.692186 0.495004 0.339192 0.244253 0.186518 0.151067 0.188115 0.182262 0.0885479 0.0208297 -0.115648 -0.221034 -0.195236 -0.207643 -0.28685 -0.341864 -0.365482 -0.365899 -0.315902 -0.282231 -0.252674 -0.244753 -0.293238 -0.314298 -0.270579 -0.276272 -0.321576 -0.31668 -0.28526 -0.221444 -0.132151 -0.132685 -0.102004 -0.0624431 -0.0623754 -0.104368 -0.144462 -0.164423 -0.187497 -0.207133 -0.200293 -0.256415 -0.250974 -0.268171
285.5275 0.00025 0.0308638 0.0927236 -0.0108691 0.00182009 0.0853888 0.146543 0.0826602 0.0256995 0.0128954 -0.111075 -0.156504 -0.174932 -0.271109 -0.28463 -0.235433 -0.0749533 0.00311319 -0.088589 -0.0786231 0.0525789 0.184038 0.335537 0.39479 0.387235 0.391342 0.362173 0.378405 0.385347 0.27654 0.194701 0.0630376 0.0365038 0.0288341 -0.0459284 -0.0871712 -0.0857988 -0.105837 -0.0784957 -0.00945873 0.0353982 0.0169442 -0.0141237 -0.027955 -0.0395852 -0.0457846 -0.0560799 -0.0898588 -0.0937304 -0.0567636 0.0633225 0.207738 0.469866 0.6413 0.816432 0.889825 0.846309 0.707651 0.502272 0.346853 0.253339 0.189766 0.148129 0.190906 0.196413 0.107402 0.0344863 -0.102788 -0.217999 -0.195946 -0.202605 -0.278692 -0.33792 -0.367647 -0.368356 -0.317383 -0.284873 -0.255979 -0.246872 -0.294548 -0.317735 -0.274427 -0.277053 -0.320158 -0.316732 -0.285684 -0.2222 -0.134312 -0.132946 -0.102019 -0.0602845 -0.0611989 -0.10397 -0.144493 -0.164852 -0.188358 -0.2068 -0.198541 -0.255756 -0.250003 -0.267459
285.53 0.00025 0.0221278 0.0906869 -0.00863625 0.0107925 0.0693784 0.130651 0.0718396 0.0253486 0.00881481 -0.119416 -0.163224 -0.184882 -0.268711 -0.283814 -0.237099 -0.0778125 0.0111543 -0.0868205 -0.081079 0.0539618 0.190646 0.331727 0.389256 0.382535 0.391493 0.361762 0.370238 0.370924 0.260769 0.181496 0.0610692 0.0359266 0.0289616 -0.0468112 -0.0877722 -0.0858253 -0.103259 -0.0821111 -0.0140874 0.0377955 0.0237511 -0.0127255 -0.0269384 -0.0377713 -0.0438711 -0.0540774 -0.0924569 -0.0952272 -0.0586683 0.0616142 0.204603 0.463384 0.631601 0.812458 0.898347 0.858863 0.723329 0.509736 0.354357 0.262449 0.193808 0.145337 0.192405 0.209275 0.125697 0.0480883 -0.0897412 -0.214125 -0.196798 -0.197789 -0.270454 -0.333461 -0.369567 -0.37098 -0.318762 -0.287461 -0.259399 -0.249008 -0.295752 -0.32099 -0.278341 -0.27805 -0.318751 -0.316598 -0.286055 -0.222927 -0.136535 -0.133279 -0.102075 -0.0581647 -0.0599552 -0.103557 -0.144519 -0.165269 -0.189178 -0.206501 -0.196858 -0.255111 -0.249036 -0.266754
285.5325 0.00025 0.0138928 0.0881229 -0.00572265 0.0189015 0.0538764 0.114542 0.0619123 0.0252121 0.00525674 -0.126606 -0.169814 -0.194355 -0.265687 -0.28215 -0.23731 -0.0813932 0.0186443 -0.0837951 -0.082674 0.0544492 0.197288 0.327369 0.382583 0.378414 0.391677 0.361778 0.362659 0.356646 0.245632 0.167309 0.059175 0.0354754 0.0290733 -0.0472981 -0.0877385 -0.086453 -0.100921 -0.0853746 -0.0196691 0.0396181 0.0302363 -0.0110242 -0.0259551 -0.0356339 -0.0418506 -0.051292 -0.094749 -0.0966347 -0.0608341 0.0600025 0.201812 0.456674 0.62181 0.807786 0.906265 0.871759 0.73917 0.517405 0.361795 0.271413 0.198649 0.142844 0.192604 0.220866 0.143247 0.0615556 -0.0765467 -0.209415 -0.1977 -0.193191 -0.262157 -0.328482 -0.371183 -0.373757 -0.320073 -0.289991 -0.26294 -0.251165 -0.296851 -0.324076 -0.282341 -0.279285 -0.317381 -0.316277 -0.286361 -0.223633 -0.138799 -0.133691 -0.102182 -0.0561012 -0.0586497 -0.103132 -0.144548 -0.165679 -0.189961 -0.206235 -0.195247 -0.254472 -0.248069 -0.266051
285.535 0.00025 0.00636295 0.0847568 -0.00226488 0.0255864 0.0393322 0.0987928 0.0531027 0.0254132 0.00220574 -0.132236 -0.176337 -0.202756 -0.26185 -0.279721 -0.236233 -0.0855758 0.0253535 -0.0795166 -0.0834457 0.0542898 0.203777 0.322585 0.374896 0.374909 0.391773 0.361981 0.355784 0.342482 0.231125 0.152404 0.0571854 0.0350866 0.0290492 -0.0473919 -0.0870227 -0.0875739 -0.0988362 -0.0883907 -0.0260822 0.0408101 0.0362948 -0.00904473 -0.024928 -0.0331945 -0.0396404 -0.0478241 -0.0967808 -0.0980196 -0.0632117 0.0585299 0.19933 0.449727 0.611966 0.802367 0.913479 0.884945 0.755114 0.525288 0.369139 0.280053 0.204375 0.140866 0.191743 0.231278 0.159958 0.0749768 -0.0632831 -0.203873 -0.198566 -0.188827 -0.253868 -0.323024 -0.372431 -0.376658 -0.321322 -0.292434 -0.266586 -0.253313 -0.297851 -0.326978 -0.286367 -0.280724 -0.316068 -0.315771 -0.286608 -0.224345 -0.141099 -0.134191 -0.102334 -0.0541031 -0.0572778 -0.102688 -0.144574 -0.166077 -0.190704 -0.205998 -0.193697 -0.253838 -0.247102 -0.265352
285.5375 0.00025 -0.000459588 0.0804118 0.00156648 0.0305715 0.0261102 0.0839494 0.0453539 0.0259202 -0.000310159 -0.135893 -0.182624 -0.209854 -0.257111 -0.276673 -0.234288 -0.0899813 0.031046 -0.0741876 -0.0835403 0.0537902 0.20961 0.317363 0.366527 0.37191 0.391761 0.362056 0.349844 0.328466 0.217191 0.137169 0.0550119 0.0347378 0.0287861 -0.0471438 -0.0856981 -0.0890046 -0.0969861 -0.0910986 -0.0331213 0.041251 0.0418654 -0.0068825 -0.0237065 -0.0305569 -0.0371123 -0.0437303 -0.098453 -0.0993707 -0.0657073 0.0570593 0.197113 0.442616 0.602207 0.796381 0.919913 0.898393 0.771125 0.53348 0.376426 0.288138 0.210917 0.139598 0.189904 0.24056 0.175768 0.0882904 -0.0500779 -0.197498 -0.199297 -0.184709 -0.24563 -0.317112 -0.373274 -0.379686 -0.322561 -0.2948 -0.270343 -0.255481 -0.298765 -0.3297 -0.290418 -0.282377 -0.31483 -0.315086 -0.28679 -0.225067 -0.143432 -0.134793 -0.102528 -0.052186 -0.0558563 -0.102235 -0.144613 -0.166477 -0.191418 -0.205795 -0.192227 -0.253226 -0.246146 -0.264664
285.54 0.00025 -0.00645704 0.0753917 0.0055957 0.0338285 0.0144022 0.0700907 0.0381788 0.0268424 -0.00230059 -0.137469 -0.188368 -0.215546 -0.251592 -0.273298 -0.232034 -0.0940888 0.0354358 -0.0680784 -0.0826958 0.0533946 0.214418 0.311568 0.358002 0.369267 0.391733 0.361703 0.345048 0.31473 0.203702 0.121987 0.0525548 0.0343527 0.0281904 -0.0465934 -0.0837875 -0.0905497 -0.0953997 -0.0935112 -0.0405796 0.0409529 0.0468371 -0.00452252 -0.0222436 -0.027799 -0.034116 -0.0391655 -0.0997977 -0.100675 -0.0682273 0.0555721 0.19512 0.435359 0.592527 0.789856 0.925392 0.912038 0.787147 0.541999 0.383662 0.295639 0.218268 0.139145 0.187128 0.248756 0.190664 0.101486 -0.0369009 -0.190411 -0.199862 -0.180937 -0.237523 -0.310799 -0.373658 -0.382794 -0.323813 -0.297091 -0.274193 -0.257666 -0.299605 -0.33225 -0.294483 -0.284233 -0.313696 -0.314235 -0.286889 -0.225794 -0.145767 -0.135477 -0.10274 -0.0503442 -0.05435 -0.101746 -0.144641 -0.166868 -0.192085 -0.205609 -0.190823 -0.252622 -0.245188 -0.263973
285.5425 0.00025 -0.0118085 0.0698768 0.00984634 0.0357105 0.00464664 0.0572099 0.0308805 0.0280255 -0.00381974 -0.137045 -0.193351 -0.219869 -0.245474 -0.269757 -0.229904 -0.0974977 0.0382796 -0.061337 -0.0805868 0.0534562 0.217761 0.305045 0.34984 0.366854 0.391801 0.360636 0.341527 0.30141 0.190598 0.107294 0.0498122 0.0338896 0.027178 -0.0458101 -0.0814026 -0.0920733 -0.0941741 -0.0957352 -0.0483219 0.0398344 0.0511957 -0.00202017 -0.0204452 -0.0250909 -0.0305493 -0.0343154 -0.100761 -0.101925 -0.0706906 0.0540326 0.193287 0.427973 0.582997 0.78291 0.929858 0.925826 0.803002 0.550813 0.390794 0.302423 0.226271 0.139655 0.183657 0.255956 0.204569 0.114553 -0.0238443 -0.182587 -0.200115 -0.177458 -0.229556 -0.304112 -0.373533 -0.385957 -0.32509 -0.299277 -0.278124 -0.259873 -0.30038 -0.334623 -0.298535 -0.28628 -0.312676 -0.313228 -0.286902 -0.22654 -0.148101 -0.136265 -0.102985 -0.0486035 -0.0527858 -0.101242 -0.144679 -0.167259 -0.192721 -0.205444 -0.189498 -0.252029 -0.244238 -0.26329
285.545 0.00025 -0.0164278 0.0642362 0.0141932 0.036892 -0.00287031 0.0455405 0.0228575 0.0293723 -0.00477729 -0.134778 -0.197458 -0.223121 -0.238954 -0.266081 -0.228411 -0.0996843 0.0393883 -0.0541492 -0.0770621 0.0544543 0.219464 0.29752 0.342504 0.364624 0.39209 0.358652 0.33925 0.288694 0.177627 0.0934403 0.0468457 0.0333495 0.025645 -0.0447913 -0.0786025 -0.0932685 -0.0932491 -0.0976991 -0.0561463 0.0378935 0.0547854 0.000497484 -0.0182584 -0.0223894 -0.0263965 -0.0293726 -0.10128 -0.10315 -0.0730059 0.0524203 0.19149 0.420515 0.573634 0.775569 0.933181 0.939713 0.81868 0.560071 0.397888 0.308481 0.234805 0.141251 0.179642 0.262116 0.217431 0.12749 -0.0109163 -0.174121 -0.199948 -0.174271 -0.22179 -0.297118 -0.372894 -0.38914 -0.326414 -0.301374 -0.282116 -0.262091 -0.301085 -0.336806 -0.302557 -0.288497 -0.311762 -0.312079 -0.286822 -0.227291 -0.150433 -0.137168 -0.103265 -0.046964 -0.0511638 -0.100711 -0.144726 -0.167655 -0.193328 -0.205308 -0.188247 -0.251453 -0.243292 -0.262616
285.5475 0.00025 -0.020631 0.0588325 0.0184868 0.0379042 -0.00785517 0.035364 0.0136637 0.0307298 -0.00518514 -0.1308 -0.20061 -0.225605 -0.232234 -0.262259 -0.227996 -0.100428 0.038712 -0.0467031 -0.0720688 0.0565243 0.219397 0.288914 0.336278 0.362694 0.392608 0.355553 0.338127 0.276715 0.164835 0.0806793 0.0437554 0.0327385 0.0235235 -0.0435734 -0.0755563 -0.09398 -0.0926311 -0.0994435 -0.0638677 0.0351422 0.0575211 0.00301463 -0.0156021 -0.0196947 -0.0216216 -0.0245077 -0.101339 -0.104272 -0.0750058 0.0508182 0.189712 0.41312 0.564488 0.767909 0.935359 0.9536 0.834075 0.569691 0.405 0.313855 0.243658 0.143943 0.175364 0.267213 0.229317 0.140309 0.00181297 -0.165062 -0.199356 -0.171378 -0.214269 -0.289878 -0.371704 -0.392294 -0.327814 -0.303389 -0.286169 -0.264337 -0.301738 -0.338827 -0.306547 -0.290875 -0.310964 -0.310805 -0.286645 -0.228045 -0.152748 -0.138148 -0.103549 -0.0454306 -0.0494771 -0.100139 -0.144773 -0.168045 -0.193901 -0.205189 -0.187071 -0.250888 -0.242349 -0.261945
285.55 0.00025 -0.0244019 0.053864 0.0226943 0.0391125 -0.0101452 0.027134 0.00337289 0.0320076 -0.00527301 -0.125089 -0.202587 -0.227177 -0.225167 -0.258207 -0.228798 -0.0996768 0.036302 -0.0391426 -0.0656864 0.0599121 0.217718 0.279259 0.331312 0.361176 0.393204 0.351288 0.337886 0.265695 0.15205 0.0690672 0.0405981 0.0321504 0.0207454 -0.0421867 -0.0724052 -0.09416 -0.0923413 -0.100939 -0.0714149 0.0315331 0.0593298 0.00544866 -0.0125354 -0.0169506 -0.0162564 -0.0198148 -0.100936 -0.105303 -0.0766358 0.0491344 0.187797 0.405706 0.555486 0.759939 0.936367 0.967371 0.849117 0.579718 0.412107 0.318615 0.252654 0.14785 0.171039 0.271316 0.240256 0.153003 0.0143088 -0.155562 -0.198317 -0.168786 -0.207037 -0.282422 -0.369953 -0.39537 -0.329288 -0.305315 -0.290264 -0.2666 -0.302353 -0.340671 -0.310483 -0.293404 -0.310282 -0.309432 -0.286353 -0.228807 -0.155042 -0.139234 -0.103856 -0.0440114 -0.0477328 -0.0995336 -0.144833 -0.168436 -0.194443 -0.205084 -0.185971 -0.250331 -0.241401 -0.261275
285.5525 0.00025 -0.0277261 0.049257 0.0269565 0.0406889 -0.00971691 0.0208128 -0.0078687 0.0332376 -0.00506951 -0.117771 -0.203018 -0.227724 -0.21744 -0.254005 -0.230701 -0.0973629 0.0322895 -0.0317002 -0.0581869 0.0645798 0.214533 0.268707 0.327637 0.360293 0.393703 0.346067 0.338093 0.255763 0.139268 0.0585803 0.0375544 0.0316164 0.0172938 -0.0405584 -0.0691113 -0.0936646 -0.0922986 -0.102139 -0.0785671 0.0271018 0.0601803 0.00776982 -0.00897361 -0.0140699 -0.0103746 -0.0154312 -0.100062 -0.106266 -0.0778194 0.0475002 0.185751 0.398347 0.546608 0.75175 0.936169 0.980922 0.863786 0.590197 0.419269 0.322782 0.261524 0.152913 0.166891 0.274409 0.250237 0.16561 0.026588 -0.145654 -0.196716 -0.166396 -0.200105 -0.274814 -0.367641 -0.398338 -0.330862 -0.307185 -0.294376 -0.268901 -0.302931 -0.34237 -0.314358 -0.296067 -0.309709 -0.307985 -0.285953 -0.229571 -0.157316 -0.140415 -0.10419 -0.0427174 -0.0459376 -0.0988898 -0.144914 -0.168829 -0.194956 -0.204996 -0.184951 -0.249793 -0.24046 -0.260617
285.555 0.00025 -0.0308027 0.0446741 0.0314234 0.0428143 -0.00669616 0.0160105 -0.019573 0.0341799 -0.00478848 -0.108947 -0.201618 -0.227033 -0.208951 -0.249845 -0.233375 -0.0936255 0.0268087 -0.024525 -0.0498919 0.0703343 0.210041 0.257628 0.325327 0.360163 0.394011 0.340146 0.33824 0.247204 0.126538 0.0490994 0.0347526 0.0312186 0.013245 -0.0387758 -0.0657777 -0.0925719 -0.0925664 -0.10304 -0.085105 0.0218837 0.0599512 0.0099946 -0.00504133 -0.0110237 -0.0040638 -0.0114112 -0.0987818 -0.107071 -0.0784998 0.0458829 0.183507 0.391079 0.537824 0.743332 0.934738 0.99411 0.877992 0.601001 0.42649 0.326441 0.269917 0.158959 0.163239 0.276426 0.259313 0.178098 0.0385247 -0.135405 -0.194523 -0.164186 -0.193509 -0.267098 -0.364767 -0.401146 -0.332537 -0.309002 -0.298488 -0.271227 -0.303483 -0.343894 -0.318158 -0.298857 -0.309248 -0.306485 -0.285436 -0.230338 -0.159559 -0.141671 -0.104529 -0.0415454 -0.0440911 -0.0982002 -0.145001 -0.169226 -0.195447 -0.204918 -0.184009 -0.249272 -0.239526 -0.259965
285.5575 0.00025 -0.0336813 0.0397796 0.0360661 0.0456724 -0.0020236 0.0125462 -0.031333 0.0345756 -0.00437452 -0.0992124 -0.198139 -0.225324 -0.199796 -0.245999 -0.236275 -0.0886495 0.0200551 -0.0176822 -0.0410508 0.0769446 0.204386 0.246456 0.324286 0.360763 0.393918 0.333904 0.337727 0.239988 0.113873 0.0404529 0.0322084 0.0309244 0.00867892 -0.036908 -0.0624076 -0.0908686 -0.0931172 -0.103627 -0.090952 0.0157537 0.0586032 0.012072 -0.000774885 -0.00765882 0.00260154 -0.00777914 -0.0970578 -0.107635 -0.0786638 0.04434 0.180967 0.38395 0.529173 0.734733 0.93211 1.00685 0.891738 0.612111 0.433813 0.329759 0.277812 0.166044 0.160258 0.277374 0.267579 0.19044 0.0501365 -0.12492 -0.191811 -0.162137 -0.187285 -0.25936 -0.361355 -0.403767 -0.334313 -0.310783 -0.302575 -0.273585 -0.304006 -0.345269 -0.321872 -0.301748 -0.308898 -0.304962 -0.284791 -0.231093 -0.161785 -0.143011 -0.10488 -0.0405021 -0.0422011 -0.09746 -0.1451 -0.169624 -0.195906 -0.204852 -0.183142 -0.248761 -0.238591 -0.259317
285.56 0.00025 -0.0364352 0.034417 0.0408328 0.0490375 0.00353256 0.0103736 -0.0429623 0.0341193 -0.00368938 -0.0891704 -0.192704 -0.222569 -0.19005 -0.24267 -0.238638 -0.0825884 0.0124842 -0.0112207 -0.0319434 0.084001 0.197684 0.235707 0.324439 0.361948 0.393302 0.327804 0.336077 0.234232 0.101508 0.0325893 0.029931 0.0306596 0.00373511 -0.0350575 -0.0589875 -0.0887203 -0.0939695 -0.103806 -0.0957721 0.00888979 0.0559947 0.0140015 0.00377487 -0.0038878 0.00953077 -0.00454501 -0.0949631 -0.107981 -0.0782801 0.0429063 0.178079 0.376965 0.520684 0.726031 0.928365 1.01899 0.905075 0.623588 0.441224 0.332718 0.284934 0.173889 0.158217 0.277296 0.275013 0.202646 0.0614167 -0.114223 -0.188556 -0.16016 -0.181454 -0.251646 -0.357383 -0.406127 -0.336184 -0.312544 -0.306627 -0.275991 -0.304513 -0.346503 -0.325492 -0.30472 -0.308631 -0.303406 -0.283989 -0.231827 -0.163981 -0.144417 -0.105242 -0.0395852 -0.0402825 -0.0966683 -0.145214 -0.17002 -0.196338 -0.20479 -0.182351 -0.248266 -0.237654 -0.25867
285.5625 0.00025 -0.0390223 0.0287336 0.0455964 0.0528299 0.00926819 0.00969952 -0.0544124 0.0326919 -0.00273731 -0.0795221 -0.185541 -0.219165 -0.180104 -0.23974 -0.239865 -0.0758557 0.00465564 -0.00524137 -0.0227402 0.0909763 0.190208 0.225884 0.325626 0.363516 0.392044 0.3222 0.332967 0.229874 0.0895855 0.0253509 0.0278961 0.0303122 -0.00129038 -0.0333363 -0.0554938 -0.0862307 -0.0951008 -0.103602 -0.0995336 0.00135884 0.0521816 0.0157788 0.00850301 0.000252881 0.0166526 -0.00162262 -0.0925877 -0.108007 -0.0773368 0.0416823 0.174827 0.37012 0.512356 0.717189 0.923519 1.03041 0.918031 0.635405 0.448745 0.335492 0.291241 0.182398 0.157292 0.276383 0.281813 0.214714 0.0723773 -0.10339 -0.184715 -0.158244 -0.175953 -0.24401 -0.352895 -0.408204 -0.338136 -0.314282 -0.310615 -0.278453 -0.30501 -0.347606 -0.329015 -0.30777 -0.308453 -0.301865 -0.283055 -0.23255 -0.166138 -0.145875 -0.10562 -0.0388016 -0.0383383 -0.0958204 -0.145351 -0.170425 -0.196749 -0.20473 -0.181638 -0.247788 -0.236725 -0.258029
285.565 0.00025 -0.0415821 0.0226041 0.0504545 0.056931 0.014617 0.0106302 -0.0657812 0.0305147 -0.00152031 -0.0704979 -0.176935 -0.215167 -0.170203 -0.237018 -0.239643 -0.068888 -0.00275929 0.000120463 -0.0136344 0.0973567 0.182118 0.217384 0.327673 0.365364 0.390036 0.317335 0.328331 0.22666 0.0783427 0.0187375 0.0259485 0.0297953 -0.00632389 -0.031906 -0.0519077 -0.083556 -0.0965636 -0.103014 -0.102127 -0.00681597 0.0470916 0.017368 0.0132837 0.00468156 0.0238975 0.000966884 -0.0899495 -0.107647 -0.0758126 0.0407365 0.171269 0.363473 0.504233 0.708222 0.917665 1.04098 0.930636 0.647526 0.456346 0.338178 0.296657 0.191353 0.157684 0.274687 0.287991 0.22652 0.0830153 -0.0924839 -0.180382 -0.156351 -0.17082 -0.236508 -0.347895 -0.409959 -0.340167 -0.316032 -0.314549 -0.280966 -0.305488 -0.348594 -0.332429 -0.310894 -0.308374 -0.300361 -0.281979 -0.23325 -0.168276 -0.147382 -0.10601 -0.0381448 -0.0363755 -0.0949117 -0.145508 -0.170842 -0.197147 -0.204691 -0.181008 -0.24733 -0.235802 -0.257392
285.5675 0.00025 -0.0440287 0.0161894 0.0551694 0.0610504 0.0191651 0.0130557 -0.0772283 0.0278399 -0.000118438 -0.0623742 -0.167353 -0.210616 -0.160652 -0.234181 -0.237889 -0.0622628 -0.00911575 0.0047897 -0.00463306 0.102656 0.173633 0.210421 0.330431 0.367327 0.387114 0.313326 0.322321 0.224201 0.0680335 0.0127242 0.0239675 0.0289421 -0.0111194 -0.0308387 -0.0483026 -0.0808401 -0.0983805 -0.102025 -0.103405 -0.0153963 0.0407724 0.0188285 0.0180845 0.00934537 0.0313216 0.00330855 -0.0872287 -0.106881 -0.0736996 0.0401318 0.167357 0.356922 0.496263 0.699115 0.910796 1.05051 0.942883 0.659901 0.463988 0.340815 0.301194 0.200426 0.159382 0.272213 0.293543 0.237992 0.0933622 -0.0815172 -0.175536 -0.154376 -0.166053 -0.229218 -0.342428 -0.411335 -0.342269 -0.317804 -0.318416 -0.283533 -0.305964 -0.349483 -0.335731 -0.31407 -0.308377 -0.298898 -0.280749 -0.233942 -0.170379 -0.148945 -0.106428 -0.0376168 -0.0344011 -0.0939374 -0.145677 -0.171263 -0.197518 -0.204655 -0.180453 -0.246886 -0.234872 -0.256756
285.57 0.00025 -0.0461842 0.00979393 0.0597038 0.0645846 0.0228878 0.0167228 -0.0885932 0.0249024 0.00161885 -0.055309 -0.157343 -0.20543 -0.15185 -0.23092 -0.234691 -0.0563717 -0.0137789 0.00876092 0.00420251 0.106409 0.164926 0.205217 0.333711 0.369359 0.383071 0.310139 0.315323 0.222043 0.0588582 0.00734465 0.0218175 0.0276086 -0.0155288 -0.0301797 -0.0445694 -0.0781679 -0.100469 -0.100614 -0.103363 -0.0243243 0.0332691 0.0201688 0.0228475 0.0141758 0.0388812 0.00540033 -0.084478 -0.105684 -0.0710882 0.0398722 0.163145 0.35044 0.488561 0.689911 0.903002 1.05896 0.95477 0.67266 0.471633 0.343524 0.304849 0.209418 0.162426 0.269204 0.298584 0.249125 0.103469 -0.07061 -0.170236 -0.152328 -0.161589 -0.222177 -0.336524 -0.412338 -0.34441 -0.319594 -0.322191 -0.28615 -0.306437 -0.350281 -0.338907 -0.317303 -0.308449 -0.297482 -0.279358 -0.234615 -0.172441 -0.150537 -0.10686 -0.0372218 -0.0324326 -0.0928958 -0.145864 -0.17169 -0.197873 -0.204623 -0.179976 -0.24646 -0.233947 -0.256124
285.5725 0.00025 -0.0481014 0.00339685 0.0640112 0.0670694 0.025675 0.0210714 -0.0993964 0.0214305 0.00370936 -0.0489882 -0.147321 -0.199461 -0.144072 -0.227145 -0.230211 -0.0513852 -0.0164785 0.0120462 0.0127413 0.108194 0.156051 0.201798 0.337471 0.371423 0.377853 0.307563 0.307681 0.219604 0.0508929 0.00256942 0.019426 0.0256555 -0.0195222 -0.0299677 -0.040795 -0.0755817 -0.102799 -0.0988396 -0.102017 -0.0334521 0.0246892 0.021391 0.0274935 0.0190366 0.0465652 0.00729781 -0.0817922 -0.103995 -0.0679974 0.039983 0.158642 0.343937 0.481152 0.680586 0.894403 1.06619 0.966401 0.685745 0.479209 0.346243 0.307699 0.217983 0.166856 0.265858 0.30314 0.259763 0.113412 -0.0597547 -0.164541 -0.150119 -0.157493 -0.215423 -0.330256 -0.412922 -0.346601 -0.321422 -0.325878 -0.288799 -0.30692 -0.351012 -0.341968 -0.320581 -0.308594 -0.296135 -0.277819 -0.235263 -0.174458 -0.152158 -0.107314 -0.0369475 -0.0304727 -0.0917842 -0.146066 -0.172132 -0.198214 -0.204601 -0.179583 -0.246052 -0.233023 -0.255495