285.5025 0.00025 30.596 -47.1961 -81.5805 -55.0105 -15.8046 5.13535 17.6629 31.3876 59.484 115.772 88.9496 101.512 115.03 107.516 109.255 134.131 127.602 114.696 76.5211 42.8753 0.0186269 -10.2009 -8.8577 8.86362 8.51253 20.098 9.77057 -1.02248 -12.1322 -11.8507 -19.2368 -8.31089 -4.03056 7.76983 5.21798 8.49883 9.14223 10.3986 22.0222 31.0526 56.1693 82.0648 103.347 124.869 129.28 137.897 156.908 162.044 169.43 167.955 166.206 155.739 151.886 134.275 120.865 105.104 96.2594 71.9674 75.7637 82.8675 96.011 97.3521 99.158 92.7172 79.2097 84.5625 90.9982 116.702 122.692 128.263 124.523 137.019 161.232 179.21 186.686 179.647 177.457 179.111 177.492 187.23 203.854 227.742 239.833 241.272 252.227 229.826 211.05 194.085 202.504 208.424 218.311 199.683 188.026 139.872 90.284 64.8899 65.0508 44.1566 51.1775 106.235
285.505 0.00025 26.1158 -50.5815 -83.7897 -59.815 -16.3255 8.46747 17.5957 28.8889 55.066 114.464 90.7148 100.398 118.328 111.875 110.904 134.974 126.763 110.232 76.0845 46.7812 0.23533 -8.22154 -7.32192 11.5977 11.284 24.66 17.2639 2.29016 -7.55742 -8.45814 -16.6089 -6.00958 -0.977228 9.20528 3.81668 8.60906 9.19268 10.4605 23.1623 32.7857 56.8965 81.0872 103.293 125.225 128.202 136.081 153.848 159.278 166.962 165.48 165.496 156.522 152.915 135.56 121.955 106.557 97.2415 72.0399 76.304 83.4741 96.5408 97.237 98.7638 93.1929 79.1542 83.3867 88.9032 114.195 121.892 127.757 124.151 134.898 158.815 177.57 186.499 180.744 177.385 178.251 176.918 186.78 203.492 227.744 240.454 241.821 252.881 231.187 212.218 194.941 202.631 208.852 218.749 200.601 190.034 143.343 93.0344 66.3449 66.1649 44.9975 51.9439 106.38
285.5075 0.00025 22.8225 -54.664 -85.2986 -64.0675 -16.6664 11.3709 17.1964 26.1407 51.5949 110.16 94.4476 99.8072 120.879 117.74 112.568 134.874 126.12 104.861 75.4417 50.5192 2.07369 -5.24985 -5.44835 14.6669 14.8181 30.0766 25.5985 6.25388 -3.65863 -5.2066 -14.8764 -4.64466 1.23012 9.81914 2.24149 8.05042 8.69827 9.82445 24.0059 34.7827 57.7644 80.2464 103.034 125.482 126.891 133.322 149.763 155.71 163.74 162.363 164.263 156.593 154.037 137.07 123.124 108.356 98.5863 72.5439 77.1619 84.1387 97.1109 97.3602 98.7093 94.4894 80.2926 83.2999 88.0282 112.813 122.022 128.113 124.795 133.65 157.081 176.665 186.974 182.841 178.617 178.827 177.586 187.362 204.112 228.473 241.519 242.65 253.577 232.517 213.496 196.052 203.157 209.57 219.47 201.639 192.04 146.501 95.4939 67.6037 67.1156 45.9379 52.8463 106.255
285.51 0.00025 19.9636 -58.4937 -85.4468 -67.7555 -16.7181 13.6277 16.7707 23.441 49.3036 103.432 98.6467 100.204 121.916 125.303 114.936 135.017 126.707 99.6031 74.6105 53.5107 5.17685 -2.00561 -3.94279 16.8673 18.0669 34.7575 33.8904 10.7262 0.158056 -1.52307 -12.82 -3.12738 3.44499 9.99453 0.522033 7.11928 7.792 8.79135 24.739 36.8942 59.0052 80.205 102.981 126.103 125.498 130.209 145.019 151.662 160.344 158.487 162.336 155.78 154.583 138.447 124.061 110.149 100.165 73.119 77.9659 84.6323 97.2035 97.5376 98.7244 96.1883 82.2351 83.9381 87.8957 112.54 123.443 129.755 126.626 133.526 156.286 176.895 188.682 186.372 181.469 180.882 179.52 188.902 205.207 229.385 242.734 243.75 254.373 233.892 214.99 197.563 204.178 210.47 220.172 202.496 193.9 149.461 97.455 68.1085 67.151 46.1085 53.2379 105.66
285.5125 0.00025 18.6573 -61.1421 -84.5258 -70.6562 -15.9958 15.3934 16.5541 20.5192 47.8484 95.5971 102.181 102.041 121.897 134.454 118.206 135.066 127.942 94.8846 73.5091 55.1449 8.20235 0.272812 -3.40861 18.2019 21.0348 38.4587 41.9195 16.4248 4.32707 2.86054 -9.41673 -0.561298 5.95637 9.95705 -1.04724 5.83488 6.38612 7.55397 25.1719 38.8541 60.0042 80.0631 102.448 126.76 124.353 127.351 140.452 147.54 156.799 154.242 160.317 154.348 154.764 139.596 124.78 111.509 101.378 72.7841 78.2987 85.1152 97.3187 97.7665 98.3762 96.8916 83.4289 84.3101 87.7739 112.227 125.18 132.165 129.349 134.559 156.302 177.661 190.934 190.633 185.046 183.284 181.75 190.75 206.751 230.673 244.293 245.444 255.659 235.472 216.433 198.764 204.74 210.866 220.302 202.704 194.998 151.889 99.0474 67.9767 66.3391 45.5007 52.7783 104.259
285.515 0.00025 18.6469 -63.4079 -83.3234 -72.6989 -14.6133 16.0715 16.3871 17.1136 47.1269 87.5222 104.316 105.174 121.535 143.876 122.22 135.067 129.089 90.2654 71.4877 55.1587 10.5891 0.639665 -4.00959 18.8631 23.5816 41.2683 49.3651 22.971 8.50594 7.32918 -5.48236 1.86809 7.80202 9.44348 -2.31774 4.13289 4.74473 6.0066 25.2174 39.8653 59.66 78.7394 100.852 126.986 123.531 125.025 136.52 143.812 153.494 150.016 158.359 153.112 155.534 141.187 125.36 112.387 101.934 71.8003 78.0989 85.3322 97.7647 98.3007 97.6828 96.7681 83.6987 83.6345 86.8476 111.073 125.778 134.024 132.102 135.805 156.105 177.619 192.086 193.701 187.578 184.657 183.09 191.977 208.143 232.203 246.14 247.525 257.354 237.307 217.843 199.729 204.767 210.958 220.316 202.9 195.75 153.98 100.586 67.9318 65.4413 44.5705 51.5619 102.119
285.5175 0.00025 19.7603 -65.2729 -82.4352 -74.1876 -13.2393 14.9477 16.5811 13.1796 45.9102 79.1614 104.453 108.995 121.573 151.76 127.019 135.257 130.152 85.7967 68.6595 53.7973 12.2813 -0.75163 -5.20589 18.9104 25.7257 43.8249 56.1797 30.2119 11.9087 10.9879 -2.00858 4.02242 9.33948 8.67535 -3.31728 2.07875 2.93536 4.5899 25.2203 40.7561 59.4367 77.4431 98.6282 126.673 122.65 122.754 132.533 140.341 150.541 146.343 157.18 152.72 157.174 143.424 126.231 113.483 102.705 71.1697 78.001 85.3958 97.9059 98.7756 96.8382 96.6323 84.154 82.9634 85.6352 109.175 124.977 134.01 132.941 135.594 154.483 176.032 191.342 194.957 188.975 185.316 183.705 192.57 208.91 233.224 247.697 249.428 258.857 239.017 219.013 200.319 204.286 210.638 220.176 203.21 196.703 156.37 102.561 68.5671 65.1456 43.9044 50.5516 100.355
285.52 0.00025 21.484 -66.6741 -81.9819 -74.8093 -12.1215 12.7115 18.1916 9.67404 44.1928 71.1053 102.481 112.381 122.345 157.323 132.629 135.989 131.625 82.7206 66.1849 51.6287 13.4173 -3.2427 -5.97469 19.1007 27.813 45.9267 61.4389 36.9054 15.0017 15.1125 2.73053 7.65648 12.1462 9.4753 -2.53733 0.845355 1.61362 3.98941 25.7158 41.9677 59.7082 76.3891 96.0841 125.608 121.851 120.721 128.789 136.984 147.313 142.709 155.959 151.994 158.582 145.719 127.573 115.094 104.062 70.894 77.9956 84.8948 97.3781 98.7071 95.7722 96.6063 84.9884 82.6091 84.4985 107.003 123.379 132.851 132.433 134.132 151.611 173.343 189.328 194.964 189.615 185.587 184.002 192.612 208.87 233.321 248.46 250.805 259.991 240.447 220.068 200.859 203.667 209.902 219.584 203.077 197.417 158.908 104.97 69.6776 65.5274 44.1205 50.6266 99.7214
285.5225 0.00025 22.8049 -67.3522 -82.1765 -74.9207 -11.3235 9.89299 20.3244 6.69639 42.1325 63.7959 98.8778 114.114 124.132 160.649 139.269 136.86 133.303 81.3144 64.2122 48.8681 13.7955 -6.09193 -6.12817 19.3834 29.2914 47.151 65.3506 43.8699 18.7931 19.9361 8.56791 12.1715 15.4583 11.0544 -0.509527 0.274388 0.406852 3.88954 26.5758 43.2774 60.2289 76.0687 93.9742 124.433 121.195 119.028 125.695 134.381 144.691 139.672 154.672 150.363 158.685 146.832 128.394 116.496 105.079 70.2685 77.418 83.5575 95.6284 97.7596 93.9238 95.4406 84.7148 81.2477 82.5341 104.146 120.587 130.324 130.493 131.437 147.523 169.645 186.226 193.835 189.256 184.951 183.418 191.768 207.921 232.388 248.155 251.344 260.635 241.657 221.321 201.942 203.602 209.418 219.136 202.907 197.934 161.397 107.72 71.2122 66.2139 44.543 50.9593 99.3253
285.525 0.00025 23.4493 -67.4719 -84.0736 -75.7421 -11.0026 6.33983 22.2266 4.25376 39.4075 56.6692 94.1963 114.103 126.499 161.552 145.879 137.295 134.379 80.6359 62.8966 45.9767 13.8788 -7.60631 -5.10201 20.0499 31.0024 48.9218 69.1378 51.9067 23.8851 25.5691 15.1961 17.2245 18.7821 12.72 2.08318 0.130092 -0.537355 4.46766 27.7179 44.7995 61.4562 77.1203 92.7401 123.446 120.721 117.136 122.473 131.339 142.061 136.958 153.529 148.905 158.718 147.919 129.054 117.513 105.417 69.0758 76.4803 82.145 93.6391 96.826 92.2319 94.1374 84.2674 79.8335 80.5412 101.588 118 128.127 128.908 129.234 143.817 166.072 183.038 192.385 188.558 183.882 182.307 190.479 206.582 231.02 247.374 251.352 260.863 242.55 222.518 203.201 203.939 209.368 219.02 203.142 198.885 164.354 110.894 72.9806 67.1538 45.0612 51.433 99.4385
285.5275 0.00025 23.114 -67.9873 -87.7694 -77.3996 -11.3683 2.46793 23.4386 2.64941 36.7894 50.3216 89.3611 112.803 128.798 160.592 151.734 137.427 134.252 79.9318 61.1399 42.0268 12.8234 -8.28632 -3.88304 20.3492 32.5531 50.5022 71.3712 59.3078 29.44 31.2346 22.2576 22.9407 22.5796 15.32 5.19818 0.25557 -0.860273 6.21991 29.9397 47.4071 63.6912 79.0386 91.8339 122.147 120.638 115.81 119.708 128.48 138.964 133.948 152.318 147.819 159.011 149.115 129.997 118.754 106.106 68.7378 76.4473 81.6277 92.4968 96.8767 91.6178 94.0181 84.7393 79.4598 79.3711 100.004 116.312 126.826 128.329 128.329 141.27 163.427 180.764 191.655 188.599 183.565 181.835 189.906 206.093 230.421 247.296 251.953 261.358 243.269 223.48 204.329 204.405 209.532 219.03 203.451 199.871 167.534 114.583 75.3008 68.5616 45.9992 52.1676 99.6401
285.53 0.00025 20.9145 -68.0636 -92.3989 -78.8559 -12.096 -0.523735 24.6276 2.60289 35.1178 44.9671 84.4783 110.628 131.013 159.373 156.47 137.995 133.715 80.2571 59.615 37.3134 10.6507 -8.74835 -2.74898 20.5745 33.9404 51.7332 72.5146 65.6499 35.0326 35.9609 28.3107 28.0444 25.671 17.6145 8.49841 0.608746 -0.882062 8.57787 32.4968 50.0859 65.9787 80.9239 91.0975 120.256 120.368 114.499 116.937 125.316 135.19 130.365 150.42 146.029 158.519 149.456 130.825 120.033 107.254 69.1583 77.1825 82.0032 92.1591 97.8315 91.9512 95.0267 86.5445 80.4173 79.2696 99.2222 115.33 126.262 128.6 128.31 139.615 161.641 179.385 191.857 189.772 184.634 182.605 190.412 206.67 230.782 247.977 253.087 262.125 243.909 224.335 205.498 205.14 209.95 219.346 203.889 200.82 170.396 118.016 77.5528 69.9309 47.0898 53.0984 99.8154
285.5325 0.00025 16.4691 -67.5568 -97.1854 -79.4703 -12.9169 -3.01756 25.8115 4.23744 34.7329 40.8091 79.9452 108.629 133.237 158.563 159.451 138.365 132.544 81.0682 58.8075 32.8009 8.29942 -8.58511 -1.39608 21.1203 35.2483 52.9086 72.8237 70.6943 40.285 39.9393 33.5274 32.5887 27.86 19.4181 11.5638 1.11668 -1.09449 10.6041 34.5032 52.3088 67.7842 82.4768 90.419 118.063 119.985 112.846 113.855 121.773 130.814 126.399 148.002 143.683 157.541 149.423 131.667 121.265 108.479 69.5165 77.8259 82.2005 91.3253 98.3149 92.1812 96.0727 88.6812 81.8096 79.6613 99.3924 115.235 126.793 130.207 129.499 139.065 160.917 179.172 193.244 192.339 187.29 184.866 192.119 207.999 231.553 248.854 254.38 263.053 244.53 225.309 206.982 206.341 210.676 219.801 204.249 201.65 173.073 121.012 79.0591 70.4085 47.4683 53.5946 99.586
285.535 0.00025 10.6833 -66.5648 -101.932 -79.1155 -14.3441 -5.7342 26.0474 6.34706 35.5112 38.2558 75.5899 106.959 135.232 157.632 160.669 138.636 131.048 81.8183 58.576 29.4984 6.37266 -7.81679 0.512099 22.6129 37.0876 54.6933 73.0935 75.0639 45.9415 43.8462 37.9444 36.4471 29.6464 21.0642 13.865 0.832593 -1.85011 12.1964 36.1077 54.271 69.8003 84.2527 90.3807 115.751 119.127 111.06 110.72 117.94 126.335 122.28 145.562 141.414 156.566 149.33 132.589 122.415 109.85 69.6404 77.8844 82.2595 90.2886 98.5413 92.3048 96.8702 90.7448 83.5058 80.251 99.8222 115.822 128.212 132.758 131.756 139.563 160.892 179.707 195.48 195.901 190.812 187.843 194.437 209.94 232.794 249.99 256.038 264.439 245.436 226.336 208.218 207.208 210.952 219.744 204.006 201.766 175.143 123.572 79.9378 70.0624 47.1085 53.3239 98.4949
285.5375 0.00025 4.80646 -65.4292 -106.352 -77.797 -16.4256 -9.01199 25.0582 7.95684 36.2675 36.3121 70.981 104.994 136.588 156.034 160.69 138.637 129.87 82.7996 58.9517 27.9587 5.33155 -6.44397 2.84345 25.2694 39.5043 57.3839 73.9445 79.4838 53.0241 49.227 43.2893 40.928 31.6936 22.7119 15.735 0.0665598 -3.12434 13.3493 37.2265 55.7048 71.4368 85.4815 90.2485 112.799 117.791 109.316 107.806 113.922 121.775 118.065 143.003 138.955 155.201 148.447 133.352 123.121 111.064 69.4936 77.4868 82.4751 89.6315 99.1101 92.5359 96.9651 91.8264 84.1557 80.2013 99.8656 115.852 129.272 135.293 134.316 140.395 160.677 179.644 196.775 198.496 193.476 190.018 196.078 211.572 234.212 251.348 257.961 266.34 246.869 227.576 209.355 207.645 210.815 219.439 203.662 201.504 176.639 125.803 80.7482 69.5235 46.3813 52.2233 96.6901
285.54 0.00025 0.288033 -64.8973 -110.134 -75.9511 -19.2005 -12.8408 22.7728 9.25211 36.9688 35.1205 66.5146 103.231 137.746 153.945 159.837 138.032 128.422 83.5229 59.2244 27.328 4.73393 -5.09059 4.92913 28.5806 41.8263 60.033 75.527 83.8187 61.4341 55.9437 49.4842 46.0591 34.4156 24.6911 17.7057 -0.778805 -4.46851 14.0006 37.5823 56.0294 71.5342 84.9837 89.3635 109.267 116.37 108.144 105.904 110.555 117.427 113.961 140.561 136.923 153.976 147.138 133.97 123.417 112.002 69.3367 76.9652 82.4479 88.9335 99.6066 92.7631 96.8956 92.7876 84.6155 79.7363 99.1338 114.705 128.688 136.259 135.608 140.259 159.266 178.13 196.243 199.349 194.963 191.161 196.818 212.33 234.942 252.308 259.586 268.132 248.354 228.811 210.441 207.836 210.389 219.036 203.476 201.446 178.245 128.205 82.1097 69.5379 45.8833 51.2314 94.9864
285.5425 0.00025 -2.84212 -64.7303 -113.184 -74.2494 -22.301 -16.8118 19.5482 10.1804 37.603 35.1911 63.1246 102.517 139.411 151.701 158.184 136.585 126.298 83.6609 58.9485 27.0718 4.45341 -4.07904 6.3511 32.9728 43.9446 61.9872 76.9187 86.3233 68.7909 62.0488 55.1608 50.7621 37.1626 26.4899 19.4644 -1.49896 -5.12413 14.6493 37.8573 55.614 71.088 84.0589 88.5404 105.646 114.812 107.442 104.387 107.544 113.559 110.844 138.843 135.621 153.402 146.483 135.265 124.121 113.274 69.668 76.4583 82.1225 87.5547 99.2407 92.5907 96.7006 93.9178 85.3978 79.3573 97.913 112.957 126.96 135.657 135.211 138.847 156.846 175.551 194.455 199.117 195.809 191.929 197.099 212.373 234.823 252.501 260.494 269.295 249.326 229.711 211.43 207.998 209.603 218.211 202.915 201.187 179.895 130.951 84.0081 70.2605 46.3312 51.4951 94.5214
285.545 0.00025 -5.16555 -64.0732 -114.876 -72.2433 -25.7865 -20.8466 15.6772 10.5949 37.6462 35.9704 60.3007 101.945 141.378 149.383 155.999 134.694 123.298 83.8049 58.7916 27.5686 5.17836 -3.18193 7.00324 37.7027 45.6927 63.4218 78.3317 87.3075 75.4266 68.0367 60.5866 55.3444 40.4192 29.2483 21.9071 -1.16551 -4.78869 16.0204 38.6764 55.7103 71.6165 83.8127 88.1508 101.707 112.562 106.562 103.136 104.706 109.995 108.282 137.517 134.778 153.163 145.967 136.921 125.185 114.985 70.6233 75.8455 81.4442 85.6106 98.3594 92.3037 96.5108 94.8622 85.936 78.6037 96.1685 110.287 123.906 133.589 133.305 135.99 153.264 171.947 191.613 197.762 195.683 191.929 196.63 211.655 233.864 251.811 260.546 269.842 249.935 230.495 212.711 208.703 209.129 217.543 202.33 200.733 181.422 133.97 86.3338 71.3673 47.0049 52.012 94.2109
285.5475 0.00025 -6.24396 -63.3772 -114.983 -70.2549 -29.7557 -24.4519 11.0617 10.3007 37.6476 37.2071 57.5687 100.457 142.276 146.297 153.14 132.671 119.516 84.1417 58.4841 28.213 6.67244 -2.40071 7.60074 42.4858 47.498 64.821 80.2308 87.792 82.2872 74.8147 67.0954 60.6899 45.2007 33.6442 25.5055 0.568414 -3.16482 18.144 40.2671 56.5613 72.7152 84.3153 88.3568 97.9196 109.713 105.594 102.285 102.157 106.736 105.829 135.81 133.306 152.108 144.428 137.751 125.894 116.141 71.3645 74.77 80.9129 83.5715 97.1803 91.8148 95.9359 95.3883 86.2211 77.8944 94.5669 107.858 120.913 131.414 131.469 133.133 149.534 167.964 188.233 195.679 194.793 191.213 195.465 210.35 232.341 250.541 259.889 269.875 250.286 231.19 213.991 209.653 209.061 217.198 202.185 200.815 183.464 137.477 88.9475 72.7261 47.6935 52.5892 94.4654
285.55 0.00025 -7.27349 -61.8814 -114.139 -68.3569 -33.5989 -27.376 6.06271 9.44225 37.3835 38.7439 55.4937 98.2142 141.95 142.996 149.723 131.124 115.404 84.4502 57.8995 28.5841 9.09197 -0.589267 9.30339 47.6791 49.8726 66.2102 82.1706 87.5741 88.3471 81.6523 74.163 66.3252 50.8616 38.4742 29.3684 2.86797 -0.73483 20.7243 42.4856 57.7552 73.9097 85.6392 89.5042 95.1993 106.977 104.67 101.246 99.0913 103.438 103.506 134.275 131.915 150.895 142.752 138.256 126.453 116.893 72.0489 73.8508 80.8879 82.3211 96.2683 91.7182 95.9037 96.3634 87.3619 78.1074 93.9427 106.571 118.872 130.242 130.697 131.352 146.651 164.823 185.579 194.085 194.398 191.047 194.935 209.756 231.498 249.88 259.694 270.233 250.663 231.731 215.03 210.575 209.124 216.92 202.059 200.987 185.78 141.563 92.2687 74.5951 48.773 53.4301 94.8277
285.5525 0.00025 -7.80838 -60.7506 -112.055 -65.8565 -36.8789 -29.7595 0.742267 8.28169 37.0059 40.6752 54.3425 95.2544 140.292 139.585 145.823 129.685 110.787 84.001 57.1244 28.8689 12.5067 2.3116 12.2572 53.0549 52.9903 67.6189 84.5115 87.0564 93.8219 88.6883 81.5364 72.3075 57.0311 43.5068 33.0234 4.93288 1.80905 23.2052 44.7922 59.2223 75.3599 87.4294 91.219 93.3041 104.326 103.97 100.694 96.2835 100.358 101.094 132.776 130.951 149.916 141.019 138.603 127.186 118.005 73.5381 73.7897 81.5352 82.0854 96.0829 92.4007 96.9882 98.3026 89.499 79.1492 94.0554 106.189 117.543 129.634 130.719 130.581 144.803 162.704 184.021 193.639 195.241 192.144 195.6 210.302 231.701 250.129 260.29 271.114 251.142 232.096 215.914 211.601 209.349 216.906 202.035 201.068 187.757 145.358 95.5873 76.525 50.0573 54.5107 95.364
285.555 0.00025 -8.84085 -59.5904 -109.68 -63.5263 -39.5803 -31.538 -5.08712 6.59807 36.7257 42.717 53.9072 91.5634 137.67 135.988 140.694 127.551 105.448 82.1268 55.9058 28.7287 15.5495 5.80442 16.1539 57.6895 56.9197 69.5304 87.3943 87.2889 98.9395 96.0744 89.4205 78.8407 64.2722 49.4957 37.5734 7.86805 5.45951 26.4137 47.6138 61.3608 77.2196 89.7052 93.3651 91.9255 101.358 103.144 100.302 93.7289 97.1465 98.0465 130.316 129.176 148.18 138.481 138.156 127.446 118.788 75.228 73.9359 82.3853 82.3117 96.2139 93.4127 98.5196 100.737 92.2004 80.761 94.7432 106.357 116.971 130.01 131.908 130.938 144.179 161.72 183.646 194.504 197.523 194.724 197.511 211.766 232.553 250.803 261.166 272.23 251.672 232.485 216.938 213.009 209.967 217.165 202.07 201.104 189.525 148.746 98.1773 77.6364 50.6621 55.1704 95.5753
285.5575 0.00025 -10.847 -58.1998 -107.501 -61.9624 -41.3985 -32.8222 -11.1674 4.63111 35.4961 45.12 54.0506 87.7241 134.607 132.853 134.638 124.683 99.7054 78.6854 54.2435 28.3159 18.0741 9.61617 20.3262 61.0582 61.083 71.2478 89.2158 86.9323 101.394 101.472 95.8256 84.1543 70.8931 54.8466 42.3244 11.3153 10.1847 30.0456 50.5312 63.1972 78.2049 91.6187 95.3976 91.3454 98.7198 102.283 99.9405 91.0052 93.6554 94.7928 127.164 126.498 145.851 135.637 137.355 127.443 119.181 76.4211 73.3577 82.8035 82.278 95.6183 93.7731 99.5923 102.828 94.8931 82.4167 95.4371 106.997 117.272 131.56 134.631 132.694 144.644 161.651 184.214 196.443 200.858 198.411 200.408 214.079 234.026 251.783 262.235 273.605 252.489 233.008 217.776 214.164 210.233 216.989 201.591 200.537 190.696 151.618 100.123 77.9368 50.5582 55.1008 94.8594
285.56 0.00025 -13.8195 -56.6611 -105.853 -60.9379 -43.0208 -33.939 -16.7881 3.18789 33.9454 47.8456 55.5509 84.5479 131.331 130.064 128.171 120.987 93.7452 74.0509 52.5981 28.6312 20.4233 13.9426 25.5386 64.0301 65.7535 73.3221 90.3214 86.8593 101.861 105.553 100.806 88.0519 76.3026 59.0578 46.256 14.1761 14.4997 33.1216 53.1056 64.7828 78.4472 92.8379 96.7785 90.7357 95.9154 101.016 99.4308 88.2718 90.3113 91.5904 124.027 123.912 143.623 132.856 136.563 127.37 119.436 77.3363 72.1027 82.5954 82.1589 94.873 93.7734 100.093 104.081 96.8932 83.8533 95.7884 107.608 117.646 133.105 137.497 134.686 145.192 161.328 184.237 197.724 203.571 201.613 202.891 216.167 235.733 253.043 263.501 275.371 253.968 233.982 218.618 214.985 210.063 216.396 200.87 199.58 191.192 153.92 101.829 77.9544 50.0621 54.2124 93.4393
285.5625 0.00025 -16.4742 -55.487 -104.274 -59.9435 -44.543 -35.5688 -21.7938 3.29664 32.7594 50.7976 58.5063 82.1353 128.028 127.93 121.968 116.764 88.2908 68.9753 50.9591 29.6723 22.3329 18.3198 31.4066 66.5812 71.068 76.0319 90.9459 87.5702 101.716 109.504 105.182 91.5352 81.3455 62.5763 49.873 16.6425 18.1346 35.5459 55.1452 65.9995 78.0608 93.3378 97.1845 89.9092 92.5988 99.2826 98.5671 85.662 86.9849 88.599 121.041 121.644 141.491 130.023 135.609 127.146 119.595 78.621 71.2081 82.3083 82.3011 94.7005 94.1639 100.562 104.965 98.2446 84.6994 95.6618 107.468 116.931 133.169 139.194 135.982 144.969 159.958 182.79 197.246 204.668 203.429 204.16 217.104 236.518 253.791 264.377 276.978 255.639 235.198 219.713 215.832 209.775 215.731 200.305 198.846 191.672 156.093 103.833 78.3863 49.7173 53.2821 91.9567
285.565 0.00025 -17.3514 -54.7072 -102.922 -59.0119 -45.7353 -38.2131 -27.1463 3.61613 31.0526 52.6831 61.7438 79.8539 124.483 126.398 116.483 112.984 84.2123 64.036 49.3044 31.7019 24.2684 22.8441 37.4589 68.7306 76.8744 79.9122 91.5179 89.0312 102.105 114.359 110.451 95.9003 86.8325 66.0717 53.7825 18.6919 20.9553 37.186 56.266 66.5095 76.4834 92.694 96.8764 89.0184 89.4903 97.688 98.0364 83.6462 84.1848 86.2164 118.345 119.582 139.439 127.146 134.517 126.631 119.584 80.1686 70.7963 81.8041 82.3308 94.437 94.6232 101.17 105.894 99.9166 85.8969 95.2922 106.818 115.444 131.843 139.379 135.916 143.764 157.564 180.284 195.652 204.702 204.495 204.855 217.337 236.424 253.726 264.482 277.755 256.638 235.936 220.61 216.725 209.301 214.727 199.442 197.986 192.157 158.472 106.339 79.5306 50.3581 53.7009 91.6303
285.5675 0.00025 -16.7762 -54.5071 -101.405 -58.5828 -47.2442 -41.2174 -32.3178 3.14622 28.1961 52.4598 64.7723 77.9601 119.892 124.799 110.983 109.093 80.983 59.0593 47.093 34.1748 26.3426 27.6555 43.5834 70.8399 82.8199 84.873 92.2979 91.2399 103.119 120.336 117.14 101.57 93.1375 70.1231 58.1991 21.0735 23.7962 38.6609 56.7247 66.3178 74.1083 91.4127 95.9477 88.3538 87.0164 96.4078 97.8757 82.5885 82.2724 84.8697 116.249 118.208 138.141 125.109 134.022 126.673 120.093 82.1311 70.7024 80.7624 81.6194 93.3128 94.5856 101.766 106.596 101.331 86.8016 94.2915 105.318 113.025 129.153 138.013 134.166 141.388 154.225 176.89 193.026 203.594 204.707 204.861 216.879 235.633 252.945 263.854 277.765 257.088 236.332 221.414 218 209.196 213.898 198.576 196.952 192.48 161.043 109.243 81.1753 51.3353 54.3924 91.4207
285.57 0.00025 -16.4754 -55.201 -100.19 -59.382 -48.9134 -44.2964 -36.1313 2.74185 25.8322 51.4688 68.373 77.5363 115.61 123.357 105.782 104.76 77.9691 53.7146 44.2838 36.2998 28.5165 32.155 49.2485 72.9794 88.5139 90.0549 92.6869 93.0603 104.252 125.634 123.096 106.676 98.7673 74.3194 62.9198 24.0333 27.2314 40.6566 57.9839 66.7698 72.4904 90.2968 94.9967 88.0378 84.5707 94.6244 97.4253 81.7048 80.5965 84.0461 114.429 117.279 137.159 123.398 133.63 126.788 120.782 84.2861 70.9058 79.52 80.7742 92.4002 94.5258 102.131 107.067 102.368 87.5922 93.2613 103.678 110.466 125.735 136.067 131.915 138.499 150.219 172.784 189.611 201.531 204.07 204.11 215.755 234.197 251.547 262.537 277.165 257.23 236.673 222.111 219.317 209.429 213.416 198.18 196.509 193.406 164.19 112.49 83.0847 52.2542 55.0389 91.7398
285.5725 0.00025 -15.3859 -56.8673 -98.9726 -60.9644 -50.3854 -47.6824 -38.2971 2.48559 24.0778 50.0853 72.2884 78.0628 111.73 121.804 100.711 99.6071 74.6477 47.8507 41.0471 37.9884 30.811 35.6783 53.8542 74.9175 94.0799 95.7567 92.6612 93.858 105.315 130.198 128.911 111.929 104.473 79.0195 68.5365 28.7293 31.868 44.0341 60.6553 68.4929 72.0917 89.6233 94.1635 87.6199 82.0835 92.3176 96.671 81.0279 79.1875 83.0308 111.956 115.928 135.87 121.698 132.689 126.214 120.873 86.1705 71.2978 78.9002 80.6836 92.0982 94.6972 102.706 107.931 104.001 89.6341 93.5929 103.252 109.181 123.259 135.168 130.588 136.176 146.76 169.198 186.481 199.572 203.625 203.734 215.1 233.244 250.594 261.506 276.766 257.428 237.069 222.641 220.436 209.669 212.934 197.777 196.208 194.676 167.96 116.585 85.6132 53.6028 56.0092 92.2946
285.575 0.00025 -15.2146 -59.5374 -97.9292 -62.9109 -52.0028 -51.2776 -39.6258 1.67752 21.7064 47.7801 75.2927 78.7093 108.091 119.537 95.3994 94.318 71.478 42.0707 37.7099 39.5434 34.095 39.6482 58.0254 77.2305 99.698 102.07 92.7527 94.2369 106.589 134.367 134.697 117.423 109.983 84.0348 74.5686 34.5747 37.0264 48.1158 63.9257 71.0923 72.7455 89.4411 93.8608 87.9329 80.4913 90.2946 95.6911 80.2895 77.74 81.8882 109.372 114.546 134.136 119.993 131.655 125.622 121.259 88.4117 72.3817 78.757 81.2807 92.4489 95.3567 103.876 109.319 106.171 92.3537 94.7522 103.793 108.796 121.518 134.959 130.19 134.949 144.48 166.877 184.662 198.814 204.36 204.69 215.736 233.431 250.598 261.352 277.051 257.908 237.438 222.957 221.473 209.951 212.615 197.426 195.77 195.572 171.357 120.666 88.2766 55.1793 57.2274 93.143
285.5775 0.00025 -15.5352 -63.8109 -97.9707 -65.3389 -53.1934 -55.1475 -39.8595 0.942279 19.108 44.9134 77.0988 79.3436 104.563 116.427 90.2701 89.2381 68.9214 37.0925 34.8639 41.4573 38.941 45.208 62.828 80.2321 104.936 108.741 92.8498 94.0363 107.789 138.003 139.867 122.888 114.973 88.9678 80.1738 40.1137 41.3498 51.4024 66.6079 73.1716 73.6189 89.3248 93.9606 88.8915 80.0461 88.7205 94.8099 79.5774 76.2499 80.6666 106.85 113.486 132.453 118.121 130.285 124.625 121.681 90.8122 74.1337 78.8356 82.1253 93.3824 96.4321 105.529 111.134 108.707 95.5025 96.4112 105.036 109.544 120.453 135.295 130.868 134.993 143.403 165.738 184.23 199.492 206.48 206.868 217.369 234.441 251.215 261.721 277.796 258.584 237.829 223.254 222.733 210.642 212.623 197.238 195.368 196.246 174.313 123.961 90.1672 56.1207 58.0071 93.7023
285.58 0.00025 -18.0927 -70.0433 -98.596 -67.2413 -54.3008 -59.1486 -39.3205 0.163212 16.4316 41.7789 77.6114 79.2429 100.566 112.369 85.277 84.0036 65.9791 32.2998 31.753 42.8 44.3065 51.5144 67.8081 83.8766 109.782 115.244 93.1173 93.5162 108.885 141.301 144.489 128.778 119.928 94.218 85.6772 46.0296 45.2136 54.1101 68.9311 75.0137 74.7156 89.225 94.3209 90.111 80.1976 87.5779 94.0119 78.9132 74.6298 79.0703 103.605 111.529 130.27 115.854 128.432 123.068 121.443 92.4863 75.6705 78.6896 82.7182 94.2792 97.4062 107.029 112.768 110.978 98.4245 97.9584 106.06 110.954 120.581 137.219 133.301 136.629 143.634 165.636 184.898 201.295 209.763 210.205 219.997 236.222 252.268 262.318 278.655 259.471 238.379 223.454 223.783 211.133 212.32 196.647 194.504 196.424 176.721 126.564 91.2573 56.4051 58.0583 93.3128
285.5825 0.00025 -22.4652 -76.4896 -99.4514 -68.6937 -55.0471 -62.9297 -38.3216 -0.651422 14.005 38.2364 76.7075 78.1759 96.6152 107.407 80.5272 78.8845 62.7572 27.423 27.9127 42.995 49.2085 57.8809 71.8776 87.34 113.924 122.175 94.7458 93.5772 110.352 144.932 149.068 135.326 125.65 100.604 92.0635 53.3084 49.8479 57.7035 71.9958 77.4779 76.4101 89.2521 94.8412 91.6259 81.072 86.8218 93.372 78.5939 73.1212 77.3852 100.15 108.858 127.704 113.574 126.444 121.092 120.5 93.221 76.34 77.764 82.7748 94.49 97.5763 107.671 113.63 112.448 101.115 99.4048 106.817 112.461 121.085 139.704 136.442 138.723 144.124 165.406 185.277 202.81 212.897 213.559 222.721 238.419 253.721 263.162 279.731 260.958 239.49 223.814 224.519 211.197 211.471 195.676 193.222 195.94 178.446 128.768 92.0007 56.3273 57.3908 92.1645
285.585 0.00025 -27.4808 -83.3907 -100.573 -70.037 -55.6806 -66.3504 -37.3756 -1.36373 12.3032 34.1825 74.4874 76.563 92.4907 101.473 76.2203 73.668 59.1558 23.1858 24.4794 42.5314 53.5229 64.9037 76.0729 90.6884 117.014 128.673 96.9984 93.5191 111.541 147.759 152.199 140.64 130.201 105.969 97.7639 60.724 54.37 61.2602 75.5239 80.1197 78.1747 88.5673 94.3276 92.2809 81.987 85.9425 92.3868 78.1479 71.627 75.6325 96.9304 106.26 125.145 111.07 124.6 118.991 119.203 93.8639 76.9212 76.2811 82.2276 94.5532 97.5534 107.766 113.753 112.644 102.861 100.253 106.952 113.162 120.31 140.551 138.555 139.901 143.772 164.02 184.189 202.702 214.405 215.533 224.132 239.537 254.594 263.632 280.569 262.645 241.044 224.735 225.51 211.319 210.574 194.805 192.119 195.366 179.83 130.951 92.9332 56.2558 56.4928 90.8438
285.5875 0.00025 -34.1696 -90.5095 -101.702 -71.4606 -56.6312 -69.0058 -36.8832 -2.49236 11.3346 30.3925 71.499 75.3709 88.2317 94.808 72.2087 67.2939 54.31 19.2059 21.1532 41.0907 56.5033 72.1648 80.557 93.5259 118.788 134.308 99.8614 93.2368 112.102 149.222 153.482 143.872 133.165 109.76 102.081 67.3805 57.955 63.5074 78.2952 81.6218 79.3543 87.3447 92.9584 92.1196 82.4054 84.7831 91.0017 77.635 70.4373 74.0617 93.8055 103.746 122.693 108.565 122.806 116.831 117.885 94.9185 78.2165 75.0342 81.6252 95.0729 98.2751 108.31 114.133 112.943 104.744 101.13 106.736 113.28 118.605 139.681 139.378 139.916 142.514 161.673 182.111 201.398 214.66 216.529 224.687 239.632 254.507 263.285 280.464 263.548 242.027 225.392 226.578 211.503 209.516 193.733 190.966 194.795 181.269 133.481 94.5085 57.1416 56.9449 90.5835
285.59 0.00025 -42.4845 -97.0197 -102.783 -72.447 -57.5816 -69.3464 -37.2043 -3.81631 10.8126 26.9013 67.8075 74.6321 83.8333 87.772 68.5945 60.3877 48.7879 15.5321 17.5352 38.2667 57.5934 78.7619 85.4674 96.4143 119.988 139.148 103.965 93.5883 112.932 150.577 154.537 146.21 135.549 112.784 105.361 73.267 60.8012 64.4486 79.9288 82.228 79.9675 85.6823 91.0776 91.7258 82.6898 83.7665 89.5987 77.151 69.7795 73.0614 91.2885 101.342 120.766 106.478 121.343 114.848 116.633 96.0347 79.8297 73.7937 80.9227 95.355 99.3754 109.419 114.754 113.055 106.445 101.706 106.002 112.827 116.413 137.734 138.924 138.681 140.41 158.561 179.15 198.997 213.83 216.701 224.535 239.079 253.761 262.29 279.514 263.693 242.463 225.635 227.68 212.059 208.709 192.715 189.69 194.085 182.874 136.385 96.6836 58.5247 57.7758 90.4301