285.5025 0.00025 4.96201 6.04474 7.091 7.44218 7.71849 7.907 8.07154 8.20942 8.34838 8.4624 8.54629 8.62651 8.69791 8.75703 8.82794 8.89855 8.94838 9.00117 9.05477 9.09362 9.138 9.18805 9.22711 9.26471 9.29699 9.34065 9.38791 9.44499 9.50079 9.55815 9.6143 9.67825 9.73181 9.77944 9.81746 9.85704 9.91365 9.97535 10.0319 10.0696 10.0986 10.1356 10.1747 10.208 10.2413 10.2742 10.3166 10.3596 10.3961 10.438 10.4772 10.4994 10.5129 10.534 10.5695 10.6031 10.6308 10.6635 10.6941 10.7299 10.7611 10.7886 10.8159 10.8407 10.8658 10.8914 10.9103 10.9289 10.948 10.9637 10.9755 10.987 10.999 11.0091 11.0159 11.018 11.0207 11.0269 11.0351 11.0423 11.0498 11.0597 11.0676 11.0742 11.081 11.089 11.0971 11.1022 11.104 11.1039 11.1033 11.102 11.0992 11.0981 11.0973 11.0953 11.0912 11.0897 11.0887 11.0855
285.505 0.00025 4.96267 6.04507 7.09072 7.44302 7.71866 7.90643 8.07146 8.20963 8.34899 8.46275 8.54618 8.62566 8.69639 8.75607 8.82733 8.89843 8.94855 9.00109 9.05452 9.09251 9.13653 9.18757 9.22695 9.26443 9.29666 9.33951 9.38674 9.44475 9.50125 9.55893 9.61474 9.6778 9.73109 9.77912 9.8172 9.85647 9.91307 9.97483 10.0319 10.0699 10.0988 10.1356 10.1749 10.2083 10.2414 10.2743 10.317 10.3595 10.3955 10.4375 10.4774 10.5 10.5132 10.5343 10.5698 10.6034 10.631 10.6637 10.694 10.7297 10.7608 10.7881 10.8155 10.8405 10.8656 10.8911 10.9102 10.9287 10.9476 10.9634 10.9754 10.9872 10.9993 11.0095 11.0163 11.0184 11.0212 11.0273 11.0355 11.0427 11.0501 11.0601 11.068 11.0746 11.0813 11.0892 11.0973 11.1024 11.1043 11.1042 11.1036 11.1024 11.0996 11.0985 11.0976 11.0957 11.0915 11.09 11.0891 11.0859
285.5075 0.00025 4.96332 6.04536 7.09036 7.44395 7.71881 7.90587 8.07142 8.20982 8.34956 8.46315 8.54614 8.62482 8.69478 8.75513 8.82676 8.8983 8.94874 9.00104 9.05421 9.09138 9.13506 9.187 9.22673 9.26425 9.2965 9.33846 9.38557 9.44449 9.50165 9.55963 9.61508 9.67729 9.73039 9.77877 9.81692 9.85599 9.91257 9.97428 10.0319 10.0702 10.0991 10.1357 10.175 10.2087 10.2415 10.2746 10.3175 10.3595 10.3949 10.437 10.4776 10.5005 10.5137 10.5346 10.5701 10.6037 10.6312 10.6639 10.6938 10.7295 10.7605 10.7875 10.8151 10.8404 10.8655 10.8909 10.91 10.9284 10.9472 10.9631 10.9754 10.9874 10.9996 11.0098 11.0166 11.0188 11.0216 11.0277 11.0359 11.043 11.0505 11.0605 11.0684 11.075 11.0816 11.0894 11.0974 11.1027 11.1046 11.1045 11.1039 11.1027 11.1 11.0988 11.0979 11.096 11.0918 11.0903 11.0895 11.0862
285.51 0.00025 4.96394 6.04559 7.08995 7.44495 7.71894 7.90533 8.0714 8.21001 8.35009 8.46358 8.54618 8.62402 8.69311 8.75419 8.82621 8.89814 8.94895 9.00103 9.05383 9.09022 9.13359 9.18633 9.22644 9.26415 9.29649 9.33752 9.38443 9.44421 9.502 9.56021 9.6153 9.67671 9.72972 9.7784 9.81663 9.85562 9.91216 9.9737 10.0318 10.0705 10.0994 10.1358 10.1751 10.209 10.2416 10.2748 10.318 10.3595 10.3944 10.4364 10.4777 10.501 10.5141 10.5349 10.5705 10.6039 10.6314 10.6641 10.6937 10.7293 10.7602 10.787 10.8147 10.8402 10.8653 10.8907 10.9099 10.9281 10.9468 10.9628 10.9753 10.9875 10.9999 11.0102 11.017 11.0192 11.022 11.0281 11.0362 11.0434 11.0508 11.0609 11.0688 11.0753 11.082 11.0897 11.0976 11.1029 11.1049 11.1048 11.1042 11.1031 11.1004 11.0991 11.0982 11.0963 11.0921 11.0906 11.0898 11.0866
285.5125 0.00025 4.96453 6.04577 7.0895 7.44599 7.71909 7.90484 8.07139 8.21019 8.35057 8.46402 8.54631 8.62327 8.69142 8.75324 8.82569 8.89794 8.94917 9.00107 9.0534 9.08904 9.13211 9.18557 9.22611 9.26413 9.29659 9.33668 9.38337 9.44391 9.50228 9.56068 9.61542 9.67608 9.72908 9.77801 9.81632 9.85534 9.91184 9.97311 10.0317 10.0707 10.0997 10.1359 10.1751 10.2092 10.2417 10.2751 10.3185 10.3595 10.3939 10.4358 10.4778 10.5014 10.5146 10.5354 10.5708 10.6042 10.6316 10.6644 10.6937 10.7291 10.7599 10.7865 10.8142 10.8401 10.8652 10.8904 10.9098 10.9279 10.9464 10.9626 10.9752 10.9877 11.0002 11.0105 11.0173 11.0196 11.0225 11.0285 11.0366 11.0437 11.0512 11.0613 11.0692 11.0757 11.0823 11.0899 11.0978 11.1031 11.1052 11.1051 11.1045 11.1034 11.1007 11.0995 11.0986 11.0967 11.0925 11.0909 11.0902 11.087
285.515 0.00025 4.96508 6.04587 7.08902 7.44706 7.71927 7.90441 8.07137 8.21037 8.35099 8.46444 8.54653 8.62258 8.68973 8.75229 8.82519 8.8977 8.94939 9.00116 9.05292 9.08782 9.13064 9.18473 9.22575 9.26417 9.29678 9.33595 9.38239 9.44362 9.5025 9.56103 9.6154 9.67538 9.72848 9.77761 9.816 9.85514 9.9116 9.97251 10.0315 10.071 10.1001 10.136 10.175 10.2094 10.2419 10.2754 10.319 10.3596 10.3934 10.4352 10.4777 10.5018 10.5151 10.5359 10.5711 10.6044 10.6318 10.6646 10.6936 10.7289 10.7596 10.7859 10.8138 10.8399 10.865 10.8902 10.9097 10.9277 10.946 10.9623 10.9751 10.9878 11.0005 11.0108 11.0177 11.02 11.0229 11.0289 11.037 11.0441 11.0516 11.0617 11.0696 11.0761 11.0826 11.0901 11.098 11.1034 11.1054 11.1054 11.1049 11.1037 11.1011 11.0998 11.0989 11.097 11.0928 11.0912 11.0906 11.0873
285.5175 0.00025 4.96559 6.04591 7.0885 7.44815 7.71949 7.90406 8.07135 8.21054 8.35137 8.46482 8.54683 8.62195 8.68807 8.75132 8.82469 8.8974 8.9496 9.0013 9.0524 9.08659 9.12915 9.1838 9.22536 9.26427 9.297 9.33535 9.38154 9.44334 9.50266 9.56125 9.61524 9.67461 9.7279 9.77721 9.81568 9.85503 9.91143 9.97192 10.0313 10.0712 10.1006 10.1362 10.175 10.2095 10.242 10.2758 10.3195 10.3596 10.393 10.4346 10.4776 10.5022 10.5156 10.5365 10.5714 10.6046 10.632 10.6648 10.6936 10.7287 10.7592 10.7853 10.8133 10.8397 10.8649 10.89 10.9096 10.9274 10.9456 10.962 10.975 10.9879 11.0007 11.0112 11.0181 11.0204 11.0233 11.0293 11.0374 11.0445 11.0519 11.0621 11.0701 11.0765 11.0829 11.0904 11.0982 11.1036 11.1057 11.1057 11.1052 11.1041 11.1015 11.1002 11.0992 11.0973 11.0931 11.0915 11.0909 11.0877
285.52 0.00025 4.96606 6.04586 7.08796 7.44925 7.71976 7.9038 8.07133 8.21069 8.3517 8.46517 8.54719 8.62137 8.68648 8.75034 8.82419 8.89705 8.9498 9.00149 9.05186 9.08535 9.12767 9.1828 9.22498 9.26441 9.29723 9.33488 9.38083 9.44307 9.50275 9.56135 9.61494 9.67377 9.72735 9.7768 9.81535 9.85498 9.91133 9.97134 10.031 10.0714 10.1011 10.1364 10.1748 10.2095 10.2421 10.2762 10.32 10.3596 10.3926 10.434 10.4775 10.5024 10.5162 10.5371 10.5718 10.6048 10.6322 10.665 10.6936 10.7285 10.7588 10.7848 10.8128 10.8395 10.8647 10.8898 10.9095 10.9272 10.9452 10.9617 10.9748 10.988 11.001 11.0115 11.0185 11.0208 11.0237 11.0297 11.0377 11.0448 11.0523 11.0625 11.0705 11.0769 11.0833 11.0906 11.0984 11.1038 11.106 11.106 11.1055 11.1044 11.1019 11.1005 11.0995 11.0977 11.0934 11.0918 11.0913 11.088
285.5225 0.00025 4.96648 6.04571 7.08739 7.45034 7.7201 7.90364 8.0713 8.21082 8.352 8.46548 8.54763 8.62083 8.68496 8.74936 8.82367 8.89665 8.94996 9.0017 9.0513 9.0841 9.12617 9.18173 9.22461 9.26456 9.29743 9.33455 9.38028 9.44282 9.50279 9.5613 9.61449 9.67285 9.72682 9.77639 9.81504 9.85499 9.9113 9.97079 10.0306 10.0716 10.1017 10.1367 10.1746 10.2095 10.2423 10.2767 10.3205 10.3597 10.3923 10.4334 10.4772 10.5027 10.5168 10.5378 10.5722 10.605 10.6324 10.6653 10.6937 10.7284 10.7585 10.7842 10.8123 10.8393 10.8646 10.8896 10.9094 10.927 10.9449 10.9614 10.9747 10.9881 11.0012 11.0118 11.0188 11.0212 11.0242 11.0301 11.0381 11.0452 11.0527 11.0629 11.0709 11.0772 11.0836 11.0908 11.0986 11.1041 11.1062 11.1063 11.1058 11.1048 11.1022 11.1009 11.0999 11.098 11.0937 11.0921 11.0917 11.0884
285.525 0.00025 4.96684 6.04548 7.08681 7.45143 7.72051 7.90358 8.07127 8.21091 8.35225 8.46575 8.54811 8.62032 8.68352 8.7484 8.82314 8.89621 8.95009 9.00194 9.05074 9.08286 9.12467 9.18059 9.22425 9.26473 9.29758 9.33435 9.3799 9.44261 9.50278 9.56114 9.6139 9.67187 9.7263 9.776 9.81475 9.85506 9.91131 9.97027 10.0302 10.0718 10.1023 10.137 10.1744 10.2094 10.2425 10.2771 10.3209 10.3597 10.392 10.4329 10.4769 10.5028 10.5173 10.5386 10.5726 10.6052 10.6326 10.6655 10.6938 10.7282 10.7581 10.7836 10.8118 10.8391 10.8644 10.8894 10.9094 10.9268 10.9445 10.9611 10.9746 10.9882 11.0014 11.0121 11.0192 11.0217 11.0246 11.0305 11.0385 11.0456 11.0531 11.0633 11.0713 11.0776 11.0839 11.0911 11.0988 11.1043 11.1065 11.1066 11.1061 11.1051 11.1026 11.1012 11.1002 11.0984 11.094 11.0924 11.092 11.0888
285.5275 0.00025 4.96714 6.04516 7.08621 7.45251 7.72101 7.90362 8.07126 8.21098 8.35246 8.46599 8.54864 8.61984 8.68216 8.74746 8.8226 8.89573 8.95018 9.00217 9.05018 9.08165 9.12316 9.17939 9.22392 9.2649 9.29767 9.33428 9.37969 9.44245 9.50272 9.56084 9.61316 9.6708 9.72579 9.77562 9.81447 9.85516 9.91137 9.96978 10.0298 10.072 10.103 10.1373 10.1741 10.2093 10.2427 10.2777 10.3214 10.3597 10.3918 10.4323 10.4766 10.5029 10.5179 10.5394 10.573 10.6054 10.6329 10.6656 10.6939 10.7281 10.7576 10.7831 10.8113 10.8388 10.8643 10.8892 10.9093 10.9267 10.9441 10.9607 10.9744 10.9883 11.0016 11.0124 11.0196 11.0221 11.025 11.0309 11.0389 11.046 11.0534 11.0637 11.0717 11.078 11.0843 11.0913 11.099 11.1045 11.1068 11.1069 11.1064 11.1054 11.103 11.1016 11.1005 11.0987 11.0943 11.0927 11.0924 11.0891
285.53 0.00025 4.96738 6.04475 7.0856 7.45359 7.7216 7.90373 8.07127 8.211 8.35264 8.46622 8.54919 8.61938 8.68088 8.74656 8.82203 8.89523 8.95024 9.00237 9.04963 9.08048 9.12165 9.17814 9.2236 9.26506 9.29769 9.33435 9.37964 9.44233 9.5026 9.56043 9.61229 9.66966 9.72526 9.77525 9.81423 9.8553 9.91147 9.96934 10.0293 10.0721 10.1038 10.1377 10.1738 10.209 10.2429 10.2782 10.3218 10.3598 10.3917 10.4318 10.4761 10.503 10.5185 10.5403 10.5734 10.6056 10.6331 10.6658 10.694 10.728 10.7572 10.7825 10.8108 10.8385 10.8641 10.889 10.9093 10.9265 10.9437 10.9604 10.9743 10.9883 11.0018 11.0127 11.02 11.0225 11.0254 11.0313 11.0393 11.0464 11.0538 11.0641 11.0721 11.0784 11.0846 11.0916 11.0992 11.1048 11.107 11.1071 11.1067 11.1058 11.1033 11.102 11.1009 11.099 11.0946 11.093 11.0928 11.0895
285.5325 0.00025 4.96758 6.04424 7.08496 7.45467 7.72228 7.90392 8.07131 8.21099 8.35278 8.46642 8.54976 8.61893 8.67967 8.74569 8.82145 8.8947 8.95028 9.00253 9.0491 9.07937 9.12015 9.17685 9.22329 9.26519 9.29764 9.33454 9.37975 9.44226 9.50244 9.5599 9.6113 9.66844 9.72472 9.77491 9.81403 9.85546 9.91159 9.96893 10.0287 10.0722 10.1045 10.1381 10.1735 10.2087 10.2431 10.2788 10.3221 10.3598 10.3916 10.4314 10.4757 10.503 10.5192 10.5412 10.5739 10.6058 10.6333 10.666 10.6942 10.7279 10.7568 10.7819 10.8103 10.8383 10.864 10.8888 10.9092 10.9264 10.9434 10.9601 10.9741 10.9884 11.002 11.013 11.0204 11.023 11.0258 11.0317 11.0397 11.0468 11.0542 11.0645 11.0725 11.0788 11.0849 11.0918 11.0994 11.105 11.1073 11.1074 11.107 11.1061 11.1037 11.1023 11.1012 11.0994 11.0949 11.0933 11.0931 11.0899
285.535 0.00025 4.96772 6.04364 7.08429 7.45574 7.72308 7.90417 8.07137 8.21093 8.35289 8.46662 8.55033 8.61849 8.67853 8.74485 8.82086 8.89417 8.95029 9.00262 9.04858 9.07834 9.11867 9.17552 9.22297 9.26529 9.29754 9.33485 9.38001 9.44224 9.50224 9.55928 9.61019 9.66716 9.72413 9.77458 9.81387 9.85564 9.91173 9.96857 10.0282 10.0722 10.1054 10.1386 10.1731 10.2084 10.2433 10.2794 10.3225 10.3598 10.3915 10.4309 10.4752 10.5029 10.5198 10.5422 10.5743 10.606 10.6336 10.6661 10.6943 10.7278 10.7563 10.7814 10.8098 10.838 10.8638 10.8886 10.9092 10.9263 10.9431 10.9597 10.974 10.9884 11.0021 11.0132 11.0208 11.0234 11.0263 11.032 11.0401 11.0472 11.0546 11.0649 11.0729 11.0792 11.0852 11.092 11.0996 11.1052 11.1076 11.1077 11.1074 11.1064 11.1041 11.1027 11.1016 11.0997 11.0952 11.0936 11.0935 11.0902
285.5375 0.00025 4.96782 6.04297 7.08358 7.45682 7.72398 7.90447 8.07145 8.21085 8.35297 8.46681 8.55089 8.61804 8.67746 8.74405 8.82025 8.89363 8.9503 9.00263 9.04806 9.07739 9.11721 9.17418 9.22262 9.26534 9.2974 9.33528 9.3804 9.44226 9.502 9.55857 9.609 9.6658 9.7235 9.77427 9.81375 9.85583 9.91189 9.96824 10.0276 10.0723 10.1062 10.1391 10.1727 10.208 10.2435 10.2801 10.3228 10.3598 10.3915 10.4305 10.4746 10.5028 10.5204 10.5432 10.5749 10.6062 10.6338 10.6662 10.6945 10.7278 10.7559 10.7808 10.8093 10.8377 10.8636 10.8884 10.9092 10.9262 10.9427 10.9594 10.9738 10.9885 11.0023 11.0135 11.0212 11.0239 11.0267 11.0324 11.0404 11.0476 11.055 11.0654 11.0733 11.0795 11.0856 11.0923 11.0998 11.1055 11.1078 11.108 11.1077 11.1068 11.1044 11.103 11.1019 11.1001 11.0955 11.0939 11.0939 11.0906
285.54 0.00025 4.96788 6.04223 7.08284 7.45792 7.72501 7.90481 8.07154 8.21073 8.35304 8.46699 8.55143 8.61758 8.67645 8.74327 8.81962 8.8931 8.95031 9.00257 9.04753 9.07654 9.11581 9.17283 9.22223 9.26533 9.29724 9.3358 9.38089 9.44232 9.50171 9.55778 9.60772 9.6644 9.7228 9.77396 9.81368 9.85603 9.91205 9.96795 10.027 10.0723 10.1071 10.1396 10.1724 10.2075 10.2437 10.2807 10.323 10.3598 10.3915 10.4302 10.474 10.5026 10.521 10.5442 10.5754 10.6064 10.634 10.6663 10.6947 10.7278 10.7554 10.7802 10.8088 10.8373 10.8634 10.8882 10.9091 10.9262 10.9424 10.9591 10.9736 10.9885 11.0024 11.0137 11.0216 11.0244 11.0271 11.0328 11.0408 11.048 11.0555 11.0658 11.0737 11.0799 11.0859 11.0925 11.1 11.1057 11.1081 11.1083 11.108 11.1071 11.1048 11.1034 11.1023 11.1004 11.0958 11.0942 11.0942 11.091
285.5425 0.00025 4.96791 6.04144 7.08204 7.45904 7.72615 7.90519 8.07164 8.21058 8.35311 8.46716 8.55194 8.61711 8.6755 8.74251 8.81896 8.89257 8.95032 9.00243 9.04698 9.07577 9.11447 9.1715 9.22177 9.26526 9.29709 9.33642 9.38147 9.4424 9.50138 9.55694 9.60639 9.66294 9.72204 9.77366 9.81366 9.85623 9.91222 9.9677 10.0265 10.0723 10.108 10.1402 10.172 10.207 10.2439 10.2814 10.3233 10.3598 10.3916 10.4299 10.4734 10.5024 10.5216 10.5453 10.576 10.6067 10.6343 10.6664 10.6949 10.7278 10.755 10.7796 10.8083 10.837 10.8632 10.8879 10.9091 10.9261 10.9422 10.9587 10.9734 10.9885 11.0025 11.0139 11.022 11.0248 11.0275 11.0332 11.0412 11.0484 11.0559 11.0662 11.0741 11.0803 11.0862 11.0928 11.1001 11.1059 11.1084 11.1086 11.1083 11.1074 11.1052 11.1038 11.1026 11.1008 11.0961 11.0944 11.0946 11.0913
285.545 0.00025 4.96789 6.04062 7.08118 7.46018 7.72741 7.9056 8.07173 8.2104 8.35317 8.46731 8.55242 8.61661 8.67462 8.74178 8.81827 8.89206 8.95036 9.00223 9.04639 9.07509 9.11321 9.17018 9.22125 9.26512 9.29697 9.33713 9.38211 9.44249 9.50102 9.55605 9.60502 9.66145 9.7212 9.77334 9.81369 9.85643 9.91238 9.96749 10.0259 10.0723 10.1088 10.1408 10.1717 10.2064 10.2441 10.282 10.3235 10.3598 10.3917 10.4296 10.4727 10.5021 10.5221 10.5464 10.5766 10.6069 10.6346 10.6665 10.6951 10.7278 10.7545 10.7791 10.8078 10.8366 10.863 10.8877 10.909 10.9261 10.9419 10.9584 10.9732 10.9885 11.0026 11.0142 11.0224 11.0253 11.028 11.0336 11.0416 11.0488 11.0563 11.0666 11.0745 11.0807 11.0866 11.093 11.1003 11.1062 11.1086 11.1088 11.1086 11.1077 11.1055 11.1041 11.103 11.1011 11.0964 11.0947 11.0949 11.0917
285.5475 0.00025 4.96785 6.03977 7.08026 7.46134 7.72878 7.90604 8.07181 8.21021 8.35325 8.46743 8.55286 8.61609 8.6738 8.74107 8.81752 8.89156 8.95043 9.00199 9.04575 9.07449 9.11206 9.16889 9.22065 9.26491 9.29689 9.33792 9.3828 9.44257 9.50062 9.55514 9.60362 9.65994 9.72029 9.77301 9.81375 9.85663 9.91253 9.96731 10.0254 10.0723 10.1097 10.1414 10.1714 10.2058 10.2442 10.2827 10.3237 10.3597 10.3918 10.4293 10.472 10.5018 10.5227 10.5475 10.5772 10.6072 10.6348 10.6666 10.6954 10.7278 10.754 10.7785 10.8073 10.8362 10.8628 10.8875 10.909 10.9261 10.9417 10.958 10.973 10.9885 11.0027 11.0144 11.0228 11.0258 11.0284 11.034 11.042 11.0492 11.0567 11.067 11.075 11.0811 11.0869 11.0932 11.1005 11.1064 11.1089 11.1091 11.1089 11.1081 11.1059 11.1045 11.1033 11.1015 11.0968 11.095 11.0953 11.092
285.55 0.00025 4.96777 6.03889 7.0793 7.46252 7.73025 7.90653 8.07188 8.21002 8.35334 8.46752 8.55326 8.61552 8.67304 8.74039 8.81671 8.89105 8.95052 9.00172 9.04507 9.07394 9.11102 9.16764 9.21997 9.26461 9.29688 9.33879 9.38352 9.44262 9.50018 9.55421 9.60221 9.65843 9.71931 9.77264 9.81385 9.85682 9.91268 9.96717 10.025 10.0723 10.1106 10.1421 10.1711 10.2052 10.2443 10.2833 10.3238 10.3597 10.392 10.4291 10.4714 10.5014 10.5232 10.5486 10.5778 10.6074 10.6351 10.6667 10.6956 10.7278 10.7536 10.778 10.8068 10.8359 10.8625 10.8872 10.9089 10.9261 10.9415 10.9577 10.9728 10.9885 11.0028 11.0146 11.0232 11.0263 11.0288 11.0344 11.0424 11.0496 11.0571 11.0674 11.0754 11.0815 11.0872 11.0935 11.1007 11.1067 11.1091 11.1094 11.1092 11.1084 11.1062 11.1048 11.1037 11.1018 11.0971 11.0953 11.0957 11.0924
285.5525 0.00025 4.96767 6.038 7.0783 7.4637 7.73181 7.90705 8.07195 8.20983 8.35344 8.46757 8.55361 8.61492 8.67233 8.73974 8.81584 8.89054 8.95064 9.00145 9.04435 9.07344 9.1101 9.16643 9.21921 9.26424 9.29693 9.33972 9.38424 9.44262 9.4997 9.55328 9.60079 9.65692 9.71826 9.77223 9.81397 9.85701 9.91281 9.96706 10.0245 10.0723 10.1114 10.1428 10.1709 10.2046 10.2444 10.2839 10.3239 10.3596 10.3921 10.429 10.4707 10.501 10.5238 10.5497 10.5785 10.6077 10.6354 10.6667 10.6958 10.7278 10.7531 10.7775 10.8063 10.8355 10.8623 10.887 10.9088 10.9261 10.9413 10.9573 10.9725 10.9884 11.0028 11.0147 11.0235 11.0267 11.0293 11.0348 11.0428 11.05 11.0576 11.0679 11.0758 11.0819 11.0876 11.0937 11.1009 11.1069 11.1094 11.1097 11.1095 11.1087 11.1066 11.1052 11.104 11.1022 11.0974 11.0956 11.096 11.0928
285.555 0.00025 4.96753 6.0371 7.07726 7.46489 7.73345 7.90763 8.07201 8.20966 8.35355 8.46757 8.55392 8.61428 8.67166 8.73912 8.8149 8.89001 8.95079 9.00119 9.0436 9.07298 9.1093 9.16527 9.21838 9.26381 9.29705 9.34072 9.38496 9.44257 9.49919 9.55237 9.59939 9.65542 9.71717 9.77177 9.81409 9.85718 9.91293 9.967 10.0241 10.0722 10.1121 10.1435 10.1707 10.204 10.2444 10.2845 10.324 10.3596 10.3923 10.4288 10.47 10.5006 10.5243 10.5508 10.5792 10.6081 10.6357 10.6668 10.696 10.7279 10.7527 10.7769 10.8058 10.8351 10.862 10.8867 10.9088 10.9261 10.9412 10.957 10.9723 10.9884 11.0029 11.0149 11.0239 11.0272 11.0297 11.0351 11.0432 11.0505 11.058 11.0683 11.0762 11.0823 11.0879 11.0939 11.1011 11.1071 11.1097 11.11 11.1098 11.109 11.1069 11.1056 11.1044 11.1025 11.0977 11.0959 11.0964 11.0931
285.5575 0.00025 4.96736 6.03619 7.07622 7.46607 7.73514 7.90826 8.07208 8.20953 8.35367 8.46751 8.55419 8.6136 8.67104 8.73853 8.81388 8.88944 8.95097 9.00096 9.04283 9.07254 9.10862 9.16415 9.21749 9.26332 9.29723 9.34176 9.38567 9.44246 9.49863 9.55147 9.59801 9.65396 9.71603 9.77124 9.81421 9.85735 9.91303 9.96697 10.0238 10.0722 10.1128 10.1442 10.1707 10.2034 10.2444 10.285 10.3241 10.3595 10.3926 10.4288 10.4693 10.5001 10.5247 10.5519 10.5799 10.6084 10.636 10.6669 10.6962 10.7279 10.7522 10.7764 10.8054 10.8346 10.8618 10.8865 10.9086 10.9261 10.941 10.9567 10.972 10.9883 11.0029 11.0151 11.0243 11.0277 11.0302 11.0355 11.0436 11.0509 11.0584 11.0687 11.0766 11.0827 11.0883 11.0942 11.1012 11.1074 11.1099 11.1102 11.1101 11.1093 11.1073 11.1059 11.1047 11.1029 11.098 11.0962 11.0968 11.0935
285.56 0.00025 4.96714 6.03529 7.07517 7.46724 7.73688 7.90895 8.07216 8.20946 8.35381 8.46738 8.55441 8.6129 8.67045 8.73796 8.81279 8.88882 8.95116 9.00075 9.04206 9.07213 9.10803 9.16308 9.21656 9.26281 9.29746 9.34282 9.38636 9.44228 9.49804 9.55059 9.59665 9.65253 9.71486 9.77064 9.8143 9.85751 9.91312 9.96698 10.0234 10.0721 10.1135 10.1448 10.1707 10.2028 10.2444 10.2855 10.3241 10.3594 10.3928 10.4287 10.4687 10.4997 10.5252 10.553 10.5807 10.6088 10.6363 10.6669 10.6964 10.728 10.7518 10.776 10.8049 10.8342 10.8615 10.8862 10.9085 10.9262 10.9409 10.9564 10.9718 10.9882 11.0029 11.0152 11.0246 11.0282 11.0306 11.0359 11.0439 11.0513 11.0589 11.0691 11.077 11.0831 11.0886 11.0944 11.1014 11.1076 11.1102 11.1105 11.1104 11.1097 11.1076 11.1063 11.1051 11.1032 11.0983 11.0965 11.0971 11.0939
285.5625 0.00025 4.96686 6.03438 7.07414 7.46837 7.73863 7.90973 8.07226 8.20947 8.35398 8.46717 8.55458 8.61217 8.66988 8.7374 8.81165 8.88813 8.95137 9.00059 9.04131 9.07176 9.10753 9.16204 9.21559 9.26227 9.29774 9.34389 9.38702 9.44204 9.4974 9.54974 9.59533 9.65115 9.71369 9.76995 9.81436 9.85765 9.91319 9.96703 10.0232 10.0721 10.114 10.1455 10.1707 10.2023 10.2443 10.286 10.3242 10.3594 10.393 10.4287 10.4681 10.4992 10.5256 10.554 10.5815 10.6092 10.6366 10.667 10.6966 10.728 10.7514 10.7755 10.8044 10.8338 10.8612 10.8859 10.9084 10.9262 10.9409 10.9561 10.9715 10.9882 11.0029 11.0153 11.025 11.0287 11.0311 11.0363 11.0443 11.0517 11.0593 11.0695 11.0774 11.0835 11.089 11.0946 11.1016 11.1078 11.1105 11.1108 11.1107 11.11 11.108 11.1067 11.1055 11.1036 11.0986 11.0968 11.0975 11.0942
285.565 0.00025 4.96654 6.03348 7.07314 7.46946 7.74037 7.91058 8.0724 8.20957 8.35416 8.46687 8.5547 8.61142 8.66933 8.73684 8.81044 8.88736 8.95158 9.00047 9.04058 9.07144 9.10712 9.16104 9.21459 9.26175 9.29805 9.34492 9.38767 9.44174 9.49673 9.54891 9.59403 9.64982 9.71252 9.76919 9.81437 9.85779 9.91326 9.96712 10.023 10.0721 10.1145 10.1462 10.1709 10.2018 10.2442 10.2863 10.3242 10.3593 10.3932 10.4286 10.4675 10.4987 10.526 10.555 10.5822 10.6097 10.637 10.6671 10.6968 10.7281 10.751 10.775 10.804 10.8333 10.8609 10.8856 10.9082 10.9263 10.9409 10.9558 10.9712 10.9881 11.003 11.0154 11.0253 11.0292 11.0315 11.0367 11.0447 11.0522 11.0598 11.07 11.0778 11.0839 11.0893 11.0949 11.1018 11.1081 11.1108 11.1111 11.111 11.1103 11.1083 11.107 11.1059 11.104 11.099 11.0971 11.0978 11.0946
285.5675 0.00025 4.96618 6.03256 7.07218 7.47049 7.74209 7.91153 8.0726 8.20978 8.35439 8.46649 8.55476 8.61068 8.66878 8.73627 8.80919 8.88649 8.95179 9.0004 9.03988 9.07118 9.10678 9.16006 9.21358 9.26126 9.29838 9.3459 9.38829 9.44141 9.49602 9.54809 9.59277 9.64855 9.71137 9.76834 9.81431 9.8579 9.9133 9.96725 10.0228 10.072 10.1149 10.1469 10.1712 10.2013 10.244 10.2866 10.3241 10.3593 10.3934 10.4287 10.4669 10.4982 10.5263 10.556 10.583 10.6101 10.6374 10.6672 10.697 10.7281 10.7506 10.7746 10.8035 10.8328 10.8606 10.8853 10.908 10.9263 10.9409 10.9556 10.9709 10.9879 11.003 11.0156 11.0256 11.0296 11.032 11.0371 11.0451 11.0526 11.0602 11.0704 11.0783 11.0843 11.0897 11.0951 11.1019 11.1083 11.111 11.1113 11.1113 11.1106 11.1086 11.1074 11.1062 11.1043 11.0993 11.0974 11.0982 11.095
285.57 0.00025 4.96576 6.03165 7.07125 7.47146 7.74375 7.91256 8.07288 8.21013 8.35465 8.46603 8.55474 8.60993 8.66824 8.73568 8.80789 8.88554 8.95197 9.00036 9.03922 9.071 9.10651 9.1591 9.21256 9.26081 9.29872 9.34679 9.38888 9.44105 9.49529 9.54729 9.59154 9.64734 9.71026 9.76741 9.81418 9.858 9.91334 9.96742 10.0227 10.072 10.1153 10.1475 10.1715 10.2009 10.2438 10.2869 10.3241 10.3592 10.3937 10.4287 10.4664 10.4977 10.5267 10.5569 10.5838 10.6106 10.6377 10.6672 10.6971 10.7282 10.7502 10.7742 10.8031 10.8324 10.8603 10.885 10.9078 10.9263 10.9409 10.9553 10.9706 10.9878 11.0029 11.0157 11.0259 11.0301 11.0325 11.0375 11.0455 11.053 11.0607 11.0708 11.0787 11.0847 11.09 11.0953 11.1021 11.1085 11.1113 11.1116 11.1116 11.1109 11.109 11.1078 11.1066 11.1047 11.0996 11.0977 11.0985 11.0954
285.5725 0.00025 4.96528 6.03074 7.07036 7.47235 7.74535 7.91369 8.07326 8.21061 8.35495 8.46548 8.55464 8.6092 8.66769 8.73507 8.80655 8.88448 8.95213 9.00036 9.0386 9.07092 9.10632 9.15817 9.21153 9.26041 9.29907 9.34757 9.38945 9.44069 9.49453 9.54648 9.59033 9.64619 9.70918 9.7664 9.81397 9.85808 9.91337 9.96763 10.0227 10.0719 10.1155 10.1481 10.1719 10.2005 10.2436 10.287 10.3241 10.3592 10.3939 10.4287 10.4659 10.4973 10.527 10.5578 10.5846 10.6111 10.6381 10.6673 10.6973 10.7282 10.7499 10.7738 10.8026 10.8319 10.86 10.8847 10.9076 10.9264 10.9409 10.9551 10.9703 10.9877 11.0029 11.0158 11.0262 11.0306 11.0329 11.0379 11.0459 11.0535 11.0611 11.0712 11.0791 11.0852 11.0904 11.0956 11.1023 11.1088 11.1116 11.1119 11.1119 11.1112 11.1093 11.1081 11.107 11.105 11.0999 11.098 11.0989 11.0957
285.575 0.00025 4.96476 6.02983 7.06951 7.47315 7.74687 7.91491 8.07376 8.21123 8.35529 8.46488 8.55445 8.60848 8.66715 8.73443 8.80518 8.88334 8.95224 9.00039 9.03804 9.07093 9.10621 9.15727 9.21049 9.26007 9.29943 9.34822 9.38998 9.44036 9.49377 9.54567 9.58915 9.64512 9.70816 9.76531 9.81366 9.85814 9.91339 9.96788 10.0227 10.0718 10.1157 10.1487 10.1724 10.2002 10.2433 10.2871 10.324 10.3591 10.394 10.4288 10.4654 10.4968 10.5273 10.5587 10.5854 10.6117 10.6385 10.6674 10.6974 10.7282 10.7495 10.7734 10.8022 10.8315 10.8597 10.8843 10.9073 10.9264 10.941 10.955 10.97 10.9875 11.0029 11.0158 11.0265 11.031 11.0334 11.0383 11.0463 11.0539 11.0616 11.0716 11.0795 11.0856 11.0908 11.0958 11.1024 11.109 11.1118 11.1121 11.1122 11.1115 11.1096 11.1085 11.1073 11.1054 11.1002 11.0983 11.0993 11.0961
285.5775 0.00025 4.9642 6.02892 7.06868 7.47383 7.74831 7.91621 8.0744 8.21201 8.35566 8.46423 8.55416 8.60777 8.66661 8.73377 8.80377 8.8821 8.95228 9.00043 9.03753 9.07103 9.10619 9.15642 9.20945 9.25976 9.29978 9.34873 9.39047 9.44006 9.49301 9.54483 9.58798 9.64411 9.70719 9.76416 9.81327 9.85816 9.91339 9.96816 10.0227 10.0717 10.1159 10.1493 10.1729 10.2 10.2431 10.2871 10.3239 10.3591 10.3942 10.4289 10.465 10.4964 10.5275 10.5595 10.5863 10.6123 10.639 10.6675 10.6975 10.7283 10.7492 10.773 10.8018 10.831 10.8594 10.884 10.9071 10.9264 10.9411 10.9548 10.9697 10.9873 11.0029 11.0159 11.0268 11.0315 11.0339 11.0387 11.0467 11.0543 11.062 11.0721 11.0799 11.086 11.0911 11.0961 11.1026 11.1092 11.1121 11.1124 11.1125 11.1118 11.11 11.1089 11.1077 11.1058 11.1005 11.0986 11.0996 11.0965
285.58 0.00025 4.96359 6.02803 7.06788 7.47438 7.74967 7.91759 8.07519 8.21292 8.35607 8.46355 8.55375 8.60708 8.66608 8.73309 8.80232 8.8808 8.95224 9.00047 9.03709 9.07123 9.10627 9.15565 9.20842 9.25948 9.30012 9.34909 9.3909 9.43982 9.49228 9.54397 9.58682 9.64316 9.70627 9.76296 9.81278 9.85815 9.91339 9.96847 10.0228 10.0716 10.1159 10.1499 10.1736 10.1998 10.2428 10.287 10.3237 10.3591 10.3943 10.4289 10.4646 10.496 10.5278 10.5602 10.5871 10.6128 10.6394 10.6677 10.6976 10.7283 10.749 10.7726 10.8014 10.8305 10.8591 10.8837 10.9068 10.9264 10.9412 10.9547 10.9695 10.9871 11.0028 11.016 11.027 11.0319 11.0344 11.0391 11.047 11.0548 11.0625 11.0725 11.0803 11.0864 11.0915 11.0963 11.1028 11.1095 11.1124 11.1127 11.1128 11.1121 11.1103 11.1092 11.1081 11.1061 11.1009 11.0989 11.1 11.0968
285.5825 0.00025 4.96295 6.02715 7.06709 7.47479 7.75096 7.91903 8.07614 8.21397 8.35651 8.46287 8.55324 8.60637 8.66556 8.73238 8.80084 8.87943 8.9521 9.0005 9.03671 9.07151 9.10643 9.15498 9.2074 9.25919 9.30043 9.34932 9.39127 9.43965 9.49158 9.54308 9.58567 9.64226 9.70541 9.76171 9.81219 9.8581 9.91338 9.96881 10.023 10.0715 10.116 10.1504 10.1742 10.1997 10.2425 10.2869 10.3236 10.359 10.3945 10.429 10.4643 10.4956 10.528 10.5609 10.5879 10.6135 10.6399 10.6678 10.6977 10.7283 10.7487 10.7723 10.8009 10.8301 10.8587 10.8833 10.9064 10.9263 10.9414 10.9546 10.9692 10.9869 11.0027 11.0161 11.0273 11.0324 11.0348 11.0395 11.0474 11.0552 11.063 11.0729 11.0807 11.0868 11.0919 11.0966 11.1029 11.1097 11.1127 11.113 11.1131 11.1124 11.1106 11.1096 11.1085 11.1065 11.1012 11.0992 11.1003 11.0972
285.585 0.00025 4.96227 6.02629 7.0663 7.47507 7.75219 7.92054 8.07726 8.21513 8.35698 8.4622 8.55263 8.60565 8.66508 8.73166 8.79932 8.87801 8.95184 9.00049 9.03643 9.07187 9.10668 9.15445 9.20643 9.25888 9.30071 9.34942 9.39158 9.43954 9.49092 9.54216 9.58451 9.6414 9.7046 9.76044 9.81153 9.85801 9.91336 9.96917 10.0231 10.0714 10.1159 10.1509 10.1749 10.1997 10.2422 10.2867 10.3234 10.359 10.3945 10.4291 10.464 10.4953 10.5282 10.5616 10.5886 10.6141 10.6404 10.6679 10.6978 10.7283 10.7485 10.772 10.8005 10.8296 10.8584 10.883 10.9061 10.9263 10.9415 10.9546 10.9689 10.9867 11.0027 11.0161 11.0275 11.0328 11.0353 11.04 11.0478 11.0557 11.0634 11.0733 11.0811 11.0872 11.0923 11.0968 11.1031 11.1099 11.1129 11.1132 11.1134 11.1128 11.1109 11.1099 11.1089 11.1069 11.1015 11.0995 11.1007 11.0976
285.5875 0.00025 4.96158 6.02545 7.06551 7.4752 7.75336 7.92208 8.07855 8.21639 8.35748 8.46155 8.55191 8.60488 8.66463 8.73094 8.79778 8.87658 8.95144 9.00044 9.03623 9.07231 9.107 9.15407 9.20552 9.25851 9.30092 9.34943 9.39183 9.43949 9.49033 9.54121 9.58335 9.64056 9.70384 9.75915 9.81078 9.85787 9.91332 9.96955 10.0234 10.0713 10.1159 10.1513 10.1756 10.1998 10.242 10.2864 10.3232 10.359 10.3946 10.4292 10.4638 10.495 10.5284 10.5621 10.5894 10.6148 10.641 10.6681 10.6978 10.7283 10.7483 10.7716 10.8001 10.8291 10.8581 10.8826 10.9057 10.9262 10.9417 10.9546 10.9686 10.9864 11.0026 11.0162 11.0277 11.0332 11.0358 11.0404 11.0482 11.0561 11.0639 11.0738 11.0816 11.0877 11.0927 11.0971 11.1033 11.1101 11.1132 11.1135 11.1137 11.1131 11.1113 11.1103 11.1093 11.1072 11.1018 11.0998 11.101 11.0979
285.59 0.00025 4.96087 6.02463 7.0647 7.47521 7.75449 7.92367 8.08001 8.21773 8.35801 8.46095 8.55111 8.60405 8.66421 8.73023 8.79623 8.87513 8.95087 9.00032 9.03614 9.07282 9.10737 9.15385 9.2047 9.25807 9.30103 9.34935 9.39203 9.43951 9.48981 9.54025 9.58218 9.63974 9.70312 9.75787 9.80996 9.85767 9.91327 9.96994 10.0236 10.0711 10.1158 10.1518 10.1763 10.1999 10.2417 10.286 10.323 10.359 10.3947 10.4293 10.4636 10.4948 10.5285 10.5627 10.5902 10.6154 10.6415 10.6683 10.6979 10.7283 10.7481 10.7713 10.7997 10.8287 10.8577 10.8823 10.9053 10.9261 10.9418 10.9546 10.9684 10.9862 11.0025 11.0163 11.0279 11.0336 11.0363 11.0408 11.0486 11.0566 11.0644 11.0742 11.082 11.0881 11.093 11.0973 11.1034 11.1104 11.1135 11.1138 11.114 11.1134 11.1116 11.1107 11.1096 11.1076 11.1022 11.1001 11.1014 11.0983
285.5925 0.00025 4.96013 6.02382 7.06387 7.47512 7.75559 7.92527 8.08162 8.21913 8.35858 8.46042 8.55022 8.60314 8.66381 8.72953 8.79468 8.87369 8.95014 9.0001 9.03615 9.0734 9.10779 9.1538 9.20402 9.25756 9.30103 9.3492 9.39219 9.43956 9.48936 9.5393 9.58101 9.6389 9.70241 9.7566 9.80907 9.85742 9.9132 9.97033 10.0239 10.071 10.1156 10.1522 10.1771 10.2001 10.2415 10.2856 10.3227 10.3589 10.3947 10.4294 10.4634 10.4946 10.5287 10.5632 10.5909 10.6161 10.6421 10.6684 10.6979 10.7283 10.748 10.771 10.7993 10.8283 10.8574 10.8819 10.9049 10.9259 10.942 10.9546 10.9681 10.9859 11.0024 11.0163 11.0281 11.034 11.0368 11.0413 11.049 11.057 11.0648 11.0746 11.0824 11.0885 11.0934 11.0976 11.1036 11.1106 11.1137 11.1141 11.1143 11.1137 11.1119 11.111 11.11 11.108 11.1025 11.1004 11.1018 11.0987