285.5025 0.00025 0.62814 0.981422 1.26084 1.09461 1.07432 1.0023 0.97965 0.946992 0.904554 0.877821 0.869046 0.871766 0.855939 0.839682 0.83123 0.790661 0.771041 0.771762 0.780239 0.764624 0.714334 0.673455 0.637134 0.603334 0.566489 0.52254 0.467999 0.420115 0.388105 0.355709 0.334027 0.308663 0.29223 0.279062 0.271604 0.270911 0.26 0.242496 0.232398 0.230276 0.226003 0.212962 0.200191 0.196984 0.193998 0.188589 0.182072 0.179343 0.172664 0.158553 0.147231 0.144612 0.148672 0.153674 0.154786 0.153494 0.145702 0.138596 0.135629 0.126669 0.115492 0.101492 0.0879882 0.0769845 0.0683869 0.0603714 0.0563073 0.0526004 0.0459959 0.0395989 0.0353062 0.0324976 0.0300809 0.0287805 0.0279734 0.0268577 0.0268169 0.0267948 0.025914 0.0251223 0.0254445 0.0256179 0.0264555 0.0279157 0.0295724 0.0308136 0.0295392 0.0279544 0.0283291 0.0292631 0.0298063 0.0309173 0.0320434 0.0329217 0.0328415 0.0320704 0.0309503 0.0302832 0.0303748 0.0329104
285.505 0.00025 0.631667 0.984411 1.26067 1.09261 1.07352 1.00087 0.980418 0.947512 0.906013 0.878229 0.871028 0.875147 0.855199 0.83824 0.831532 0.790524 0.770219 0.770797 0.779468 0.764321 0.715612 0.673473 0.635295 0.602119 0.566857 0.524326 0.469698 0.420959 0.388253 0.355481 0.333831 0.308017 0.29135 0.278177 0.270489 0.270285 0.260433 0.243362 0.233076 0.230649 0.225999 0.213066 0.199943 0.196818 0.193866 0.188549 0.182177 0.179762 0.17331 0.159074 0.147388 0.144386 0.14807 0.153555 0.154847 0.153164 0.145896 0.138642 0.135696 0.126931 0.115735 0.101808 0.0883358 0.0771864 0.0685587 0.0604398 0.0563544 0.0528712 0.0462784 0.0397803 0.0354312 0.0325869 0.0301085 0.0287583 0.0279448 0.0268554 0.0268078 0.0267839 0.0259103 0.0250979 0.0254271 0.0255862 0.0263723 0.0278175 0.0294767 0.0307288 0.0295098 0.0279201 0.0282546 0.0291895 0.029747 0.0308534 0.031961 0.0328464 0.0327857 0.032023 0.0309051 0.0302445 0.0303429 0.0328872
285.5075 0.00025 0.63522 0.98719 1.2604 1.09064 1.07259 0.999614 0.981207 0.947969 0.907651 0.878693 0.872707 0.878301 0.854779 0.837026 0.831871 0.790538 0.769361 0.76962 0.778591 0.763932 0.716995 0.673583 0.6335 0.600839 0.567093 0.526003 0.471461 0.421977 0.388423 0.355315 0.333618 0.307387 0.290502 0.277299 0.269408 0.269646 0.260779 0.244237 0.233802 0.231016 0.225966 0.213232 0.199782 0.196639 0.193719 0.188539 0.182274 0.18012 0.173932 0.15964 0.147596 0.144187 0.14747 0.153403 0.154907 0.152854 0.146098 0.138696 0.13572 0.127184 0.115977 0.102103 0.0886889 0.0774104 0.0687421 0.0605143 0.0563961 0.0531298 0.046567 0.0399643 0.0355601 0.0326791 0.0301374 0.0287373 0.0279169 0.0268519 0.0267962 0.0267728 0.0259067 0.0250729 0.0254081 0.0255561 0.0262919 0.0277203 0.029381 0.0306401 0.0294768 0.0278866 0.0281808 0.0291148 0.029687 0.0307897 0.0318787 0.03277 0.0327289 0.0319746 0.030859 0.0302051 0.0303105 0.0328636
285.51 0.00025 0.6388 0.989736 1.26002 1.08879 1.07148 0.998506 0.982037 0.948335 0.909431 0.879308 0.874145 0.881072 0.854645 0.836077 0.832246 0.790691 0.768472 0.768243 0.777613 0.763469 0.718435 0.673762 0.631792 0.59952 0.567183 0.52756 0.473268 0.423147 0.388636 0.355214 0.333388 0.30678 0.289688 0.276426 0.268366 0.268997 0.261036 0.245105 0.23457 0.23138 0.225906 0.21345 0.199713 0.196452 0.193551 0.188556 0.182368 0.180417 0.174525 0.16025 0.147859 0.144018 0.146878 0.153215 0.154962 0.152568 0.146307 0.138764 0.135701 0.127422 0.116219 0.102381 0.0890449 0.0776563 0.0689379 0.0605959 0.0564329 0.0533734 0.0468616 0.0401513 0.0356925 0.0327741 0.0301672 0.028717 0.0278898 0.026847 0.0267817 0.0267611 0.0259029 0.0250474 0.0253872 0.025527 0.0262138 0.0276239 0.0292852 0.0305478 0.0294398 0.0278532 0.0281076 0.0290388 0.0296261 0.0307257 0.0317963 0.0326925 0.0326709 0.0319251 0.0308118 0.0301648 0.0302774 0.0328393
285.5125 0.00025 0.642378 0.992052 1.25946 1.08714 1.07017 0.997521 0.982912 0.948645 0.911321 0.880121 0.875416 0.883376 0.854718 0.835426 0.832661 0.790983 0.76757 0.766682 0.776529 0.762958 0.71988 0.673981 0.630208 0.598205 0.567121 0.528986 0.475111 0.424444 0.388912 0.355175 0.333138 0.306204 0.288914 0.275559 0.267363 0.268336 0.261204 0.245952 0.235375 0.23175 0.225827 0.213707 0.199734 0.196263 0.193355 0.188603 0.182464 0.180657 0.175082 0.160897 0.148178 0.143879 0.146298 0.15299 0.155004 0.152307 0.146521 0.138851 0.135643 0.127641 0.116461 0.102644 0.089399 0.0779231 0.0691473 0.0606862 0.0564653 0.0536014 0.0471618 0.0403421 0.0358283 0.0328716 0.0301979 0.028698 0.027864 0.0268414 0.0267644 0.0267487 0.0258994 0.0250218 0.0253648 0.025499 0.0261383 0.0275289 0.0291895 0.0304523 0.0293992 0.0278202 0.0280355 0.0289621 0.0295646 0.0306619 0.0317141 0.0326141 0.0326121 0.0318747 0.0307638 0.030124 0.0302438 0.0328146
285.515 0.00025 0.645956 0.99414 1.25868 1.08576 1.06867 0.996634 0.983834 0.948906 0.913288 0.881147 0.876599 0.885209 0.854896 0.835084 0.833125 0.791399 0.76668 0.764951 0.775311 0.762425 0.721284 0.67422 0.628778 0.596931 0.5669 0.530263 0.47699 0.425835 0.389281 0.355202 0.33287 0.305671 0.28819 0.274705 0.266404 0.267664 0.261294 0.246767 0.236208 0.232129 0.225731 0.213993 0.199849 0.196086 0.193127 0.188674 0.182569 0.180844 0.1756 0.161577 0.148553 0.143776 0.145737 0.152729 0.155031 0.152074 0.146735 0.138959 0.135553 0.127836 0.116701 0.102896 0.0897471 0.0782084 0.0693702 0.0607857 0.0564935 0.0538122 0.0474665 0.0405373 0.0359668 0.0329715 0.0302291 0.0286798 0.0278396 0.0268348 0.0267442 0.0267351 0.025896 0.024996 0.0253406 0.0254716 0.026065 0.0274352 0.0290939 0.030354 0.0293549 0.0277868 0.0279641 0.0288843 0.0295022 0.030598 0.0316321 0.0325348 0.0325521 0.0318234 0.0307148 0.0300825 0.0302095 0.0327893
285.5175 0.00025 0.649541 0.996002 1.2576 1.08465 1.06704 0.995805 0.984766 0.949164 0.915274 0.882377 0.87774 0.886618 0.855086 0.835047 0.833635 0.79192 0.765828 0.763079 0.773935 0.761898 0.722609 0.674458 0.627517 0.595737 0.566523 0.531371 0.478916 0.427284 0.389753 0.35529 0.332581 0.305182 0.287521 0.273869 0.26549 0.266979 0.261308 0.247535 0.237059 0.232527 0.22563 0.2143 0.200051 0.195926 0.192863 0.188764 0.182685 0.18098 0.176073 0.162281 0.148985 0.14371 0.1452 0.152434 0.155036 0.151867 0.14695 0.139093 0.135435 0.128002 0.116936 0.103142 0.0900865 0.0785117 0.0696077 0.0608973 0.0565188 0.0540044 0.047775 0.040738 0.036108 0.0330737 0.030261 0.0286629 0.0278167 0.0268274 0.0267212 0.0267203 0.0258928 0.0249703 0.025315 0.0254444 0.0259939 0.0273428 0.0289982 0.0302533 0.029307 0.0277531 0.0278937 0.0288059 0.0294391 0.0305342 0.0315504 0.0324547 0.0324913 0.0317711 0.030665 0.0300403 0.0301748 0.0327636
285.52 0.00025 0.653122 0.99763 1.25619 1.08381 1.06535 0.994998 0.985693 0.949473 0.917245 0.883789 0.878859 0.887685 0.855223 0.835269 0.834199 0.792531 0.765039 0.761117 0.772365 0.761393 0.723829 0.674687 0.626427 0.594649 0.565997 0.532297 0.480903 0.42876 0.390338 0.355437 0.33228 0.304745 0.286914 0.273052 0.264613 0.266279 0.261261 0.248244 0.237913 0.232944 0.225527 0.214611 0.200333 0.1958 0.192565 0.188869 0.182818 0.181072 0.176501 0.163004 0.149472 0.143686 0.144689 0.152105 0.155018 0.151685 0.147161 0.139252 0.135297 0.128135 0.117162 0.103385 0.0904154 0.0788286 0.0698599 0.0610225 0.056541 0.0541771 0.0480862 0.0409449 0.0362515 0.0331781 0.0302933 0.028647 0.0277957 0.0268197 0.0266956 0.0267038 0.0258897 0.0249447 0.0252879 0.0254173 0.0259248 0.027252 0.0289027 0.0301504 0.0292556 0.0277186 0.027824 0.0287266 0.0293752 0.0304703 0.0314688 0.0323737 0.0324293 0.0317178 0.0306142 0.0299975 0.0301394 0.0327372
285.5225 0.00025 0.656696 0.999022 1.2544 1.08317 1.06367 0.994187 0.986577 0.949886 0.919165 0.885349 0.879965 0.888504 0.855308 0.835693 0.834813 0.793209 0.764336 0.759125 0.770565 0.760913 0.724919 0.674901 0.62551 0.593681 0.565341 0.533024 0.482958 0.430241 0.391034 0.355632 0.331972 0.304371 0.286376 0.272268 0.263774 0.265567 0.261161 0.248891 0.238761 0.233391 0.225432 0.214922 0.20069 0.195717 0.192234 0.188983 0.182969 0.181127 0.176881 0.163739 0.150011 0.143706 0.14421 0.151746 0.154971 0.151529 0.147368 0.139439 0.135148 0.128233 0.117378 0.103627 0.0907344 0.0791575 0.070126 0.0611624 0.0565613 0.0543306 0.0483989 0.0411587 0.0363973 0.0332845 0.0303258 0.028632 0.0277764 0.0268117 0.0266674 0.0266855 0.0258866 0.0249193 0.0252595 0.0253901 0.0258574 0.0271626 0.028807 0.0300456 0.0292008 0.0276831 0.027755 0.0286468 0.0293104 0.0304063 0.0313875 0.032292 0.0323664 0.0316635 0.0305625 0.029954 0.0301034 0.0327104
285.525 0.00025 0.660233 1.00022 1.25223 1.0827 1.06209 0.993347 0.987366 0.950451 0.921019 0.887028 0.881065 0.889148 0.855363 0.836254 0.83547 0.793929 0.763731 0.757175 0.76851 0.760452 0.725874 0.675111 0.624756 0.59284 0.564588 0.533535 0.485082 0.431715 0.391826 0.355869 0.331666 0.304064 0.285912 0.271526 0.262961 0.264844 0.261013 0.249463 0.239587 0.23387 0.225354 0.215221 0.201114 0.195685 0.191874 0.189093 0.183136 0.181153 0.177212 0.164479 0.150601 0.143773 0.143766 0.151358 0.154895 0.151395 0.147569 0.139649 0.134994 0.12829 0.117576 0.103872 0.0910421 0.0794932 0.0704059 0.0613189 0.0565809 0.0544634 0.0487108 0.0413804 0.0365458 0.033393 0.0303586 0.028618 0.0277591 0.0268038 0.026637 0.0266655 0.0258835 0.0248943 0.02523 0.0253627 0.0257915 0.0270748 0.0287115 0.0299392 0.0291431 0.0276465 0.0276869 0.0285665 0.0292447 0.0303424 0.0313065 0.0322097 0.0323027 0.0316084 0.03051 0.0299099 0.0300669 0.032683
285.5275 0.00025 0.663708 1.00126 1.24967 1.08233 1.06068 0.992452 0.98803 0.951214 0.922807 0.888767 0.882146 0.889687 0.855448 0.836895 0.836149 0.794672 0.763233 0.75534 0.766188 0.759974 0.726689 0.675334 0.624154 0.592116 0.563771 0.533828 0.487266 0.433188 0.392691 0.356136 0.331372 0.303831 0.285527 0.270836 0.262167 0.26411 0.260828 0.249961 0.240381 0.234386 0.225302 0.215503 0.201597 0.195711 0.191493 0.189196 0.183321 0.181158 0.177493 0.165214 0.151236 0.143888 0.143359 0.150943 0.154788 0.151281 0.147762 0.139883 0.134842 0.12831 0.117756 0.104123 0.0913394 0.0798336 0.0706996 0.0614934 0.0566007 0.0545752 0.0490207 0.041611 0.0366968 0.0335031 0.0303916 0.0286049 0.0277437 0.0267959 0.0266043 0.0266432 0.0258802 0.0248697 0.0251996 0.0253347 0.0257271 0.0269886 0.0286159 0.0298313 0.0290826 0.0276086 0.0276194 0.0284858 0.0291782 0.0302783 0.0312257 0.0321268 0.0322379 0.0315523 0.0304565 0.0298651 0.0300298 0.0326551
285.53 0.00025 0.667133 1.00212 1.24672 1.08199 1.05949 0.991506 0.988553 0.952193 0.924526 0.890502 0.88321 0.890157 0.855625 0.83759 0.836822 0.795414 0.762838 0.753674 0.763614 0.759434 0.727373 0.675597 0.623699 0.591487 0.562932 0.533914 0.489489 0.434677 0.393602 0.356421 0.331096 0.303684 0.285229 0.270212 0.261385 0.263372 0.260603 0.250377 0.241128 0.234939 0.225286 0.215763 0.202126 0.195799 0.191103 0.189284 0.18352 0.18115 0.177724 0.165938 0.151913 0.144058 0.142992 0.150505 0.154651 0.151185 0.147945 0.140137 0.1347 0.12829 0.117914 0.10438 0.0916288 0.0801753 0.0710055 0.0616863 0.0566227 0.0546659 0.0493261 0.0418505 0.036851 0.0336147 0.0304251 0.0285926 0.0277302 0.0267885 0.0265698 0.0266188 0.0258766 0.0248458 0.0251685 0.0253063 0.0256638 0.0269042 0.0285206 0.0297223 0.0290195 0.0275694 0.0275526 0.0284049 0.0291109 0.0302143 0.0311454 0.0320434 0.0321723 0.0314953 0.0304024 0.0298198 0.0299923 0.0326268
285.5325 0.00025 0.670514 1.00277 1.24342 1.08166 1.05854 0.990512 0.988908 0.95338 0.926207 0.892181 0.884249 0.890609 0.855949 0.838338 0.837466 0.796125 0.762544 0.752226 0.760842 0.758765 0.727935 0.675927 0.623382 0.590931 0.562105 0.533809 0.49172 0.436211 0.394524 0.35671 0.330847 0.30363 0.285017 0.26966 0.260606 0.262633 0.260346 0.250716 0.24182 0.235524 0.22531 0.215998 0.202691 0.195951 0.190713 0.18935 0.183733 0.181138 0.177905 0.166644 0.152628 0.144284 0.14267 0.150047 0.154483 0.151106 0.148118 0.140411 0.134572 0.128233 0.118047 0.104645 0.0919134 0.0805151 0.0713229 0.0618998 0.0566491 0.0547359 0.049625 0.0420998 0.0370081 0.0337275 0.030459 0.0285809 0.0277186 0.0267816 0.0265335 0.026592 0.0258726 0.0248224 0.0251368 0.0252773 0.0256015 0.0268212 0.0284252 0.0296121 0.0289542 0.0275285 0.0274863 0.0283237 0.0290427 0.0301502 0.0310654 0.0319596 0.0321058 0.0314375 0.0303474 0.0297738 0.0299542 0.032598
285.535 0.00025 0.673835 1.00324 1.23979 1.08128 1.05784 0.989481 0.989085 0.954775 0.927876 0.893767 0.885269 0.891092 0.856448 0.839156 0.838047 0.796787 0.762342 0.751014 0.75795 0.757896 0.72839 0.676345 0.623199 0.590414 0.561318 0.533543 0.493923 0.437821 0.395427 0.356989 0.330636 0.303683 0.284905 0.26919 0.259829 0.261899 0.260051 0.250978 0.242448 0.236143 0.225383 0.216205 0.203281 0.196164 0.190339 0.189389 0.183953 0.18113 0.178038 0.167326 0.153373 0.144566 0.142392 0.149569 0.154284 0.151038 0.148277 0.1407 0.134462 0.128141 0.118152 0.104914 0.0921931 0.0808485 0.0716505 0.0621331 0.0566807 0.0547849 0.0499149 0.0423592 0.0371691 0.0338413 0.0304937 0.0285698 0.0277086 0.0267753 0.0264958 0.0265628 0.0258678 0.0247998 0.0251047 0.0252475 0.02554 0.0267397 0.02833 0.029501 0.0288869 0.0274859 0.0274204 0.0282425 0.0289737 0.030086 0.0309858 0.0318753 0.0320385 0.0313788 0.0302918 0.0297274 0.0299155 0.0325687
285.5375 0.00025 0.677069 1.00354 1.23594 1.08081 1.0574 0.988422 0.989048 0.956343 0.929581 0.895242 0.88625 0.891653 0.857142 0.840087 0.838557 0.797365 0.76222 0.750034 0.755039 0.756758 0.728737 0.676872 0.623152 0.589916 0.560586 0.533147 0.496059 0.439535 0.396285 0.357245 0.330459 0.303845 0.284898 0.268809 0.25905 0.261172 0.259718 0.251169 0.24301 0.236785 0.225508 0.216384 0.203891 0.196438 0.189997 0.189398 0.184178 0.181136 0.178123 0.167975 0.154145 0.144906 0.142162 0.149077 0.154058 0.150982 0.148422 0.141002 0.134376 0.128017 0.118229 0.105187 0.0924728 0.0811755 0.0719852 0.0623865 0.0567199 0.0548138 0.0501928 0.0426288 0.0373344 0.0339557 0.0305294 0.0285589 0.0277003 0.0267699 0.0264569 0.0265311 0.0258621 0.024778 0.0250723 0.0252173 0.0254792 0.0266596 0.028235 0.029389 0.0288179 0.0274417 0.0273548 0.0281612 0.0289039 0.0300218 0.0309066 0.0317908 0.0319704 0.0313192 0.0302353 0.0296803 0.0298764 0.0325389
285.54 0.00025 0.680206 1.00369 1.2319 1.08023 1.05719 0.987358 0.988792 0.958032 0.931363 0.896618 0.887181 0.892335 0.858034 0.841167 0.838996 0.797819 0.762165 0.749257 0.752205 0.755298 0.728969 0.677521 0.623248 0.589422 0.559912 0.532662 0.498099 0.441373 0.397082 0.35747 0.330318 0.304117 0.285006 0.268518 0.258273 0.260459 0.259344 0.25129 0.243502 0.237444 0.225689 0.216536 0.204505 0.196767 0.189697 0.189374 0.184401 0.181159 0.178164 0.168585 0.154938 0.145303 0.141984 0.148572 0.153805 0.150933 0.148552 0.141313 0.134313 0.127865 0.118277 0.105462 0.0927524 0.0814925 0.072325 0.0626596 0.0567695 0.0548241 0.0504566 0.0429083 0.0375044 0.0340707 0.0305665 0.0285484 0.0276934 0.0267652 0.0264173 0.026497 0.0258551 0.0247568 0.0250397 0.0251864 0.0254188 0.0265807 0.0281401 0.0292761 0.0287475 0.0273956 0.0272893 0.0280799 0.0288332 0.0299574 0.0308277 0.0317059 0.0319013 0.0312587 0.0301781 0.0296326 0.0298366 0.0325086
285.5425 0.00025 0.683247 1.00373 1.22775 1.07952 1.05716 0.986289 0.988318 0.959776 0.933278 0.897907 0.888033 0.893163 0.859127 0.842416 0.839373 0.798113 0.762164 0.748645 0.749535 0.753499 0.729067 0.678292 0.623486 0.588924 0.559282 0.532128 0.500006 0.443346 0.397815 0.357656 0.330209 0.304505 0.285241 0.268313 0.2575 0.259758 0.258931 0.251345 0.243923 0.238107 0.22593 0.21666 0.205115 0.197147 0.18945 0.189318 0.184621 0.181203 0.178165 0.169151 0.155746 0.145758 0.141859 0.148059 0.153528 0.150889 0.148667 0.141629 0.134275 0.12769 0.118296 0.105735 0.0930352 0.0817997 0.0726683 0.0629529 0.0568316 0.0548167 0.050703 0.0431972 0.0376802 0.0341862 0.0306052 0.0285382 0.027688 0.0267614 0.0263773 0.0264604 0.0258467 0.0247365 0.025007 0.0251549 0.0253589 0.026503 0.0280457 0.0291626 0.0286758 0.0273478 0.0272239 0.0279988 0.0287618 0.029893 0.0307494 0.0316209 0.0318316 0.0311975 0.0301202 0.0295844 0.0297965 0.0324778
285.545 0.00025 0.686182 1.00365 1.22352 1.07865 1.05727 0.985227 0.987641 0.961501 0.935362 0.89913 0.8888 0.894162 0.86043 0.843845 0.839728 0.798215 0.762201 0.748156 0.747084 0.751378 0.729015 0.679176 0.623872 0.588428 0.558676 0.531593 0.501754 0.445447 0.398487 0.357799 0.33013 0.304997 0.285616 0.268196 0.25674 0.25907 0.258476 0.251335 0.24428 0.238764 0.226232 0.216763 0.205713 0.197575 0.189265 0.189232 0.184833 0.181274 0.17813 0.169667 0.156564 0.146267 0.14179 0.147539 0.153227 0.15085 0.148766 0.141947 0.134263 0.127495 0.118288 0.106005 0.093323 0.0820975 0.073013 0.0632654 0.0569082 0.0547945 0.0509306 0.0434955 0.0378621 0.0343021 0.0306459 0.0285283 0.027684 0.0267584 0.0263372 0.0264217 0.0258367 0.0247172 0.0249743 0.0251229 0.0252993 0.0264263 0.0279514 0.0290483 0.0286031 0.0272983 0.0271584 0.0279177 0.0286895 0.0298285 0.0306714 0.0315357 0.0317611 0.0311354 0.0300617 0.0295357 0.0297559 0.0324466
285.5475 0.00025 0.688989 1.00348 1.21926 1.07762 1.05742 0.984188 0.986755 0.96312 0.937648 0.900328 0.889481 0.895326 0.861959 0.845442 0.84009 0.798113 0.762255 0.74776 0.744865 0.748983 0.728797 0.680149 0.624405 0.587949 0.558068 0.531099 0.503319 0.447644 0.399118 0.357897 0.330077 0.305574 0.286147 0.268165 0.256003 0.258396 0.25798 0.251262 0.244576 0.2394 0.226592 0.21685 0.206287 0.198047 0.189148 0.18912 0.185032 0.181371 0.178063 0.170127 0.157387 0.146826 0.141777 0.147018 0.152906 0.150811 0.148848 0.142262 0.134276 0.127286 0.118257 0.106268 0.0936157 0.0823853 0.0733561 0.0635948 0.0570006 0.054759 0.0511357 0.0438016 0.0380505 0.0344182 0.0306887 0.0285184 0.0276808 0.0267561 0.0262973 0.0263807 0.0258247 0.0246988 0.0249417 0.0250904 0.02524 0.0263503 0.0278573 0.0289334 0.0285296 0.0272472 0.0270926 0.0278368 0.0286166 0.0297638 0.0305939 0.0314505 0.03169 0.0310725 0.0300024 0.0294864 0.0297147 0.0324149
285.55 0.00025 0.691679 1.00317 1.21505 1.07641 1.05752 0.98317 0.985696 0.964567 0.940143 0.901531 0.890078 0.89664 0.863735 0.847174 0.840481 0.797819 0.7623 0.747435 0.742859 0.746389 0.728411 0.681179 0.625072 0.587507 0.557446 0.530681 0.504686 0.449903 0.399736 0.357957 0.330048 0.306217 0.286844 0.268214 0.255294 0.257731 0.257443 0.251129 0.24482 0.240005 0.227011 0.216926 0.206831 0.198552 0.189104 0.18899 0.185217 0.181496 0.177969 0.170529 0.158208 0.147434 0.141825 0.1465 0.152566 0.150771 0.148914 0.142572 0.134312 0.127066 0.118205 0.106522 0.0939137 0.0826645 0.0736954 0.063941 0.0571107 0.0547128 0.0513163 0.0441141 0.0382462 0.0345348 0.0307341 0.0285091 0.0276787 0.0267543 0.026258 0.0263377 0.0258104 0.0246813 0.0249093 0.0250574 0.025181 0.026275 0.0277634 0.028818 0.0284554 0.0271946 0.0270266 0.0277561 0.0285429 0.0296989 0.0305168 0.0313652 0.0316181 0.0310088 0.0299426 0.0294366 0.029673 0.0323827
285.5525 0.00025 0.694243 1.00274 1.21095 1.07506 1.05748 0.982199 0.984484 0.96577 0.942846 0.902782 0.890612 0.898068 0.86578 0.849008 0.840926 0.797362 0.762296 0.74717 0.741018 0.743663 0.72787 0.682233 0.625851 0.587127 0.556802 0.530364 0.505842 0.452175 0.400373 0.357992 0.330045 0.306899 0.28771 0.268346 0.254626 0.257075 0.256873 0.250935 0.245019 0.240566 0.227478 0.217 0.207339 0.19909 0.189135 0.188851 0.185387 0.181648 0.177852 0.170871 0.159022 0.148084 0.141933 0.145989 0.152209 0.150729 0.148964 0.142873 0.134367 0.126838 0.118138 0.106764 0.0942158 0.0829367 0.0740297 0.0643026 0.0572403 0.0546602 0.0514708 0.0444319 0.0384497 0.034652 0.0307818 0.0285001 0.0276774 0.0267527 0.0262197 0.0262931 0.0257938 0.0246648 0.0248773 0.0250243 0.0251223 0.0262004 0.0276698 0.0287023 0.0283808 0.0271407 0.0269603 0.0276757 0.0284686 0.029634 0.0304402 0.0312801 0.0315458 0.0309445 0.0298822 0.0293863 0.0296311 0.0323502
285.555 0.00025 0.696669 1.00215 1.20698 1.07354 1.05723 0.981287 0.983159 0.966696 0.945734 0.904135 0.891091 0.899567 0.868108 0.850914 0.841423 0.796793 0.762223 0.746961 0.739283 0.740864 0.727202 0.683287 0.626707 0.586827 0.556145 0.530156 0.506783 0.454405 0.401063 0.358022 0.330066 0.307602 0.288748 0.268563 0.254008 0.25642 0.256272 0.250683 0.245183 0.241075 0.227989 0.217077 0.207805 0.199652 0.189238 0.18871 0.18554 0.181825 0.177718 0.171149 0.159821 0.148772 0.142102 0.145492 0.151836 0.150684 0.148998 0.143163 0.13444 0.126606 0.118059 0.106995 0.0945215 0.0832041 0.0743576 0.0646774 0.0573903 0.0546037 0.051598 0.0447526 0.0386615 0.0347703 0.0308322 0.0284918 0.0276768 0.0267515 0.0261826 0.026247 0.0257743 0.0246491 0.0248453 0.0249908 0.0250639 0.0261262 0.0275763 0.0285862 0.0283057 0.0270856 0.0268934 0.0275955 0.0283936 0.0295688 0.0303641 0.031195 0.0314728 0.0308793 0.0298213 0.0293356 0.0295886 0.0323173
285.5575 0.00025 0.698938 1.00141 1.20319 1.07187 1.05666 0.980464 0.981755 0.967311 0.948751 0.905632 0.891553 0.901096 0.870711 0.852874 0.841956 0.79617 0.762051 0.746804 0.737599 0.738028 0.726445 0.684325 0.627605 0.586618 0.555504 0.530055 0.507513 0.456548 0.401837 0.358076 0.330109 0.308307 0.289949 0.268871 0.253447 0.255765 0.255643 0.250374 0.245318 0.241524 0.228531 0.217168 0.208224 0.200233 0.189411 0.188578 0.18568 0.182023 0.177572 0.171368 0.160601 0.149494 0.142331 0.145015 0.151451 0.150635 0.149018 0.143439 0.134527 0.126373 0.117971 0.107212 0.0948285 0.083469 0.0746767 0.0650637 0.0575607 0.0545467 0.0516968 0.0450737 0.038882 0.0348897 0.0308853 0.0284846 0.0276769 0.02675 0.0261468 0.0261995 0.0257518 0.0246343 0.0248137 0.0249571 0.0250058 0.0260522 0.0274826 0.0284697 0.0282301 0.0270295 0.0268259 0.0275155 0.028318 0.0295034 0.0302884 0.0311099 0.0313992 0.0308135 0.0297597 0.0292843 0.0295457 0.0322838
285.56 0.00025 0.701028 1.00056 1.19959 1.07003 1.05573 0.979747 0.9803 0.967608 0.951832 0.907321 0.892021 0.902597 0.873564 0.854885 0.842511 0.795548 0.761784 0.746683 0.735921 0.735171 0.725629 0.685341 0.628503 0.586484 0.554926 0.530047 0.508037 0.458566 0.402715 0.358188 0.330175 0.308999 0.291291 0.269276 0.252947 0.255107 0.254996 0.25001 0.245433 0.241903 0.229093 0.217283 0.208596 0.200826 0.189651 0.18846 0.185807 0.182237 0.17742 0.171525 0.161353 0.150243 0.14262 0.144563 0.151053 0.150581 0.149025 0.143699 0.134624 0.126142 0.117881 0.107416 0.0951346 0.0837321 0.0749864 0.0654591 0.057752 0.0544928 0.0517674 0.0453927 0.0391116 0.0350113 0.0309416 0.0284789 0.0276777 0.0267486 0.0261129 0.0261513 0.0257264 0.0246203 0.0247824 0.0249232 0.0249481 0.0259785 0.0273889 0.0283531 0.0281542 0.0269725 0.0267578 0.0274358 0.0282419 0.0294379 0.0302132 0.0310251 0.0313251 0.0307469 0.0296976 0.0292326 0.0295024 0.03225
285.5625 0.00025 0.702932 0.99958 1.19622 1.06805 1.05438 0.979161 0.978833 0.967594 0.954888 0.909236 0.892538 0.90404 0.87663 0.856943 0.843064 0.794971 0.76143 0.74658 0.734222 0.732294 0.72478 0.686353 0.629373 0.586402 0.554467 0.530107 0.508363 0.46042 0.403708 0.358392 0.330262 0.30967 0.292746 0.269789 0.252519 0.254448 0.254334 0.249594 0.245533 0.242213 0.229666 0.217429 0.20892 0.201425 0.189951 0.188366 0.185926 0.182465 0.177265 0.171625 0.162073 0.151015 0.142966 0.144144 0.150645 0.150521 0.149018 0.14394 0.134728 0.125917 0.117791 0.107607 0.0954363 0.0839949 0.0752866 0.0658625 0.0579648 0.0544452 0.0518101 0.0457055 0.0393506 0.0351348 0.0310007 0.0284748 0.0276787 0.0267466 0.0260806 0.0261024 0.0256977 0.0246071 0.0247514 0.0248892 0.024891 0.025905 0.0272948 0.0282365 0.028078 0.0269149 0.026689 0.0273562 0.0281653 0.0293721 0.0301386 0.0309406 0.0312506 0.0306797 0.0296351 0.0291805 0.0294588 0.0322158
285.565 0.00025 0.704644 0.998488 1.19309 1.06592 1.05258 0.978722 0.977383 0.967303 0.95783 0.911397 0.893152 0.905391 0.879854 0.859062 0.843609 0.794481 0.761021 0.746472 0.732497 0.729385 0.723903 0.687378 0.630208 0.586335 0.554182 0.530209 0.5085 0.462087 0.404818 0.358722 0.330376 0.310324 0.294287 0.270418 0.252166 0.253788 0.253661 0.249128 0.245622 0.242448 0.230233 0.217611 0.209198 0.202023 0.190307 0.1883 0.186041 0.182699 0.17711 0.171669 0.162752 0.151802 0.143368 0.14376 0.15023 0.150456 0.148998 0.144159 0.134834 0.125698 0.117703 0.107787 0.0957324 0.0842595 0.0755771 0.0662713 0.0581983 0.0544064 0.0518259 0.0460082 0.0395986 0.035261 0.0310627 0.0284723 0.0276799 0.026744 0.02605 0.0260531 0.0256656 0.0245945 0.0247209 0.024855 0.0248343 0.0258316 0.0272004 0.0281199 0.0280014 0.0268568 0.0266196 0.0272768 0.0280881 0.0293061 0.0300644 0.0308563 0.0311756 0.0306118 0.0295721 0.0291279 0.0294147 0.0321812
285.5675 0.00025 0.706157 0.997286 1.19022 1.06362 1.05035 0.978448 0.975985 0.966778 0.960584 0.913788 0.893922 0.906636 0.883173 0.861245 0.844146 0.794106 0.760601 0.74633 0.730752 0.726444 0.722976 0.688429 0.631014 0.58624 0.554103 0.530335 0.508452 0.463549 0.406038 0.359209 0.330524 0.310954 0.295873 0.271168 0.251895 0.253132 0.252984 0.248619 0.245708 0.242612 0.230788 0.217836 0.209434 0.202613 0.190711 0.188267 0.186158 0.182935 0.176959 0.171666 0.163386 0.1526 0.143821 0.14342 0.149811 0.150384 0.148965 0.144356 0.134939 0.125489 0.11762 0.107958 0.0960199 0.0845263 0.0758577 0.0666835 0.0584526 0.0543796 0.0518181 0.0462982 0.0398558 0.0353905 0.0311278 0.0284725 0.0276813 0.0267408 0.0260212 0.0260039 0.0256302 0.0245823 0.0246907 0.0248208 0.0247783 0.0257585 0.0271054 0.0280034 0.0279244 0.0267983 0.0265494 0.0271974 0.0280105 0.0292397 0.0299906 0.0307723 0.0311003 0.0305433 0.0295085 0.0290749 0.0293703 0.0321461
285.57 0.00025 0.707434 0.996007 1.18761 1.06112 1.04771 0.97833 0.974669 0.966056 0.963093 0.916369 0.894922 0.907779 0.886528 0.86348 0.844675 0.793845 0.760217 0.74612 0.729009 0.723473 0.72197 0.689501 0.631821 0.586088 0.554245 0.530481 0.508229 0.464799 0.407354 0.35987 0.330725 0.311568 0.297466 0.272038 0.251713 0.252489 0.252305 0.24807 0.245784 0.242703 0.231313 0.218106 0.209634 0.203188 0.191159 0.188271 0.186285 0.183171 0.176814 0.171621 0.163968 0.1534 0.144322 0.143127 0.149392 0.150308 0.148921 0.144528 0.135039 0.125293 0.117546 0.108121 0.0962965 0.0847961 0.0761309 0.0670973 0.0587265 0.0543677 0.0517889 0.0465708 0.0401218 0.0355242 0.031196 0.0284753 0.0276829 0.0267369 0.0259944 0.0259551 0.0255914 0.0245706 0.0246609 0.0247865 0.024723 0.0256855 0.0270098 0.027887 0.027847 0.0267397 0.0264786 0.0271182 0.0279325 0.0291731 0.0299174 0.0306887 0.0310246 0.0304742 0.0294446 0.0290214 0.0293254 0.0321106
285.5725 0.00025 0.708474 0.994698 1.18528 1.0584 1.04467 0.978376 0.973483 0.965168 0.965344 0.919079 0.896208 0.908834 0.889863 0.865758 0.845215 0.793707 0.759924 0.74581 0.72729 0.720496 0.720832 0.69056 0.63267 0.585879 0.554584 0.53065 0.507837 0.465838 0.408747 0.360712 0.330999 0.312172 0.299037 0.273028 0.251628 0.251868 0.251629 0.247484 0.245854 0.242727 0.231802 0.218425 0.209806 0.203744 0.191643 0.188312 0.186427 0.183403 0.176676 0.171541 0.164492 0.154197 0.144868 0.142884 0.148975 0.150226 0.148864 0.144673 0.135132 0.125111 0.11748 0.10828 0.0965594 0.0850684 0.0763958 0.0675106 0.0590183 0.0543714 0.0517407 0.0468228 0.0403952 0.0356623 0.0312675 0.0284814 0.0276847 0.0267323 0.0259694 0.0259071 0.0255494 0.024559 0.0246317 0.0247521 0.0246683 0.0256128 0.0269134 0.0277709 0.0277693 0.026681 0.0264073 0.0270389 0.0278541 0.0291061 0.0298446 0.0306054 0.0309486 0.0304044 0.0293801 0.0289675 0.0292802 0.0320747
285.575 0.00025 0.709306 0.993319 1.18323 1.0554 1.04129 0.978561 0.97249 0.96414 0.967314 0.921836 0.897833 0.90982 0.893124 0.868052 0.845791 0.793696 0.759767 0.745377 0.725623 0.717559 0.719516 0.691546 0.633607 0.585644 0.555072 0.53085 0.507287 0.466671 0.410201 0.361737 0.331376 0.312772 0.300551 0.274125 0.251645 0.251277 0.250955 0.246868 0.245914 0.242687 0.232241 0.218787 0.209957 0.204273 0.192156 0.188394 0.186589 0.183628 0.176545 0.171433 0.164957 0.154986 0.145453 0.142697 0.148566 0.150141 0.148794 0.144789 0.135215 0.124945 0.117423 0.108435 0.0968083 0.085343 0.0766542 0.067923 0.0593283 0.0543934 0.0516786 0.0470509 0.0406752 0.0358049 0.031342 0.0284907 0.0276863 0.0267264 0.0259458 0.02586 0.0255041 0.0245473 0.0246029 0.0247175 0.0246145 0.0255404 0.0268162 0.027655 0.0276911 0.0266222 0.0263355 0.0269596 0.0277753 0.0290388 0.0297723 0.0305225 0.0308723 0.0303341 0.0293153 0.0289132 0.0292347 0.0320385
285.5775 0.00025 0.709909 0.991891 1.18141 1.05209 1.03762 0.978861 0.971743 0.963025 0.96901 0.924564 0.89983 0.910772 0.896275 0.870337 0.846424 0.793813 0.759779 0.744802 0.724014 0.714719 0.717984 0.69238 0.634666 0.58544 0.555642 0.531088 0.506587 0.467306 0.411691 0.362932 0.331883 0.313379 0.30198 0.275316 0.251775 0.250731 0.250286 0.24623 0.245965 0.24259 0.232628 0.219194 0.210099 0.204773 0.192692 0.188515 0.186775 0.183846 0.17642 0.171306 0.165359 0.155758 0.146073 0.142566 0.148169 0.150055 0.148713 0.144878 0.135286 0.124798 0.117376 0.108592 0.0970427 0.0856194 0.0769076 0.0683323 0.0596538 0.0544347 0.0516059 0.0472531 0.0409603 0.035953 0.03142 0.0285035 0.0276879 0.0267197 0.0259238 0.0258143 0.0254557 0.0245354 0.0245746 0.0246828 0.0245614 0.0254684 0.0267181 0.0275391 0.0276126 0.0265636 0.0262633 0.0268801 0.0276962 0.0289711 0.0297004 0.03044 0.0307958 0.0302633 0.0292501 0.0288586 0.0291888 0.0320018