285.5025 0.00025 0.00372294 -0.00607616 -0.0438549 -0.0492861 -0.0176593 -0.0040544 0.00196661 0.0135615 0.0232756 0.0568977 0.0735545 0.0764009 0.066535 0.0604147 0.0553103 0.0396991 0.0275859 0.00393716 -0.0150081 -0.0396457 -0.0524738 -0.0406003 -0.0187577 -0.000155032 0.00629812 0.00710226 0.00033787 0.00444364 0.0176719 0.0229028 0.0255261 0.0301027 0.025899 0.0152318 0.00604299 -0.00545646 -0.00767608 -0.00584024 -0.00427586 -0.0053247 -0.00298902 -0.00405456 -0.00396141 -0.00388597 -0.00402879 -0.0038088 -0.00229106 -0.0051883 -0.00758675 -0.0116025 -0.0141391 -0.0146391 -0.0153872 -0.0159078 -0.0172648 -0.0191179 -0.0185156 -0.0154147 -0.0118959 -0.00262332 0.0015216 0.00258348 0.0023576 0.00199992 0.00329049 0.00434133 0.00627526 0.00771574 0.00765166 0.00659833 0.00524382 0.00451829 0.00407671 0.00416555 0.00457921 0.00485324 0.00587959 0.00651337 0.0061314 0.00567442 0.00591709 0.00643908 0.00560589 0.00483388 0.00439506 0.00400685 0.00370678 0.0035512 0.0035397 0.00354829 0.0036339 0.00430314 0.00529369 0.00646307 0.00711794 0.00727955 0.00742759 0.00765976 0.00712334 0.00587461
285.505 0.00025 0.00395872 -0.00586649 -0.0441162 -0.0479309 -0.0163459 -0.00207279 0.00395647 0.0156229 0.0241686 0.0560061 0.0728619 0.0764701 0.0664682 0.0601736 0.0557905 0.0408676 0.028553 0.00405949 -0.0148877 -0.0398153 -0.0534104 -0.0413031 -0.0194764 -0.000236151 0.00732795 0.00847687 0.0013879 0.00510342 0.0183141 0.023406 0.0257976 0.0302869 0.0259136 0.0151943 0.00623262 -0.00539724 -0.0079477 -0.00596883 -0.00430583 -0.00558719 -0.00316636 -0.00391958 -0.00386321 -0.00396679 -0.00428029 -0.00384468 -0.00224815 -0.00524337 -0.00782328 -0.01172 -0.0141259 -0.0145947 -0.0153008 -0.0156464 -0.0167976 -0.0188243 -0.018595 -0.015338 -0.0120741 -0.00288145 0.00148235 0.00253874 0.00215391 0.00173427 0.00317161 0.004335 0.00631255 0.0077195 0.00765274 0.00665209 0.00531302 0.00457303 0.00409811 0.0041299 0.00455077 0.00484105 0.00584984 0.00648121 0.0060965 0.00564042 0.00587195 0.00641495 0.00558194 0.00482035 0.00437606 0.00395497 0.0036761 0.0035375 0.00352612 0.00353548 0.00362175 0.00429528 0.00528444 0.00645341 0.00711557 0.00728022 0.00742127 0.00765208 0.00710506 0.00585435
285.5075 0.00025 0.00412205 -0.0057357 -0.0442789 -0.0464576 -0.0151016 -0.000125117 0.00591247 0.0177618 0.0251402 0.0552023 0.0723306 0.0763894 0.0662984 0.059925 0.0561964 0.0419908 0.0295007 0.0041946 -0.014755 -0.0398364 -0.0541679 -0.0420377 -0.0202656 -0.000451847 0.00822597 0.00983885 0.00246313 0.00578294 0.0189739 0.0239349 0.026089 0.0304504 0.0259051 0.0152036 0.00642148 -0.00533879 -0.00821487 -0.00611238 -0.00436313 -0.00586143 -0.00335836 -0.00375263 -0.00375192 -0.00403606 -0.00452115 -0.00388643 -0.00221367 -0.00529631 -0.00805871 -0.0118466 -0.0141176 -0.0145428 -0.015223 -0.0154126 -0.0163535 -0.0185096 -0.0186542 -0.0152498 -0.012221 -0.00315615 0.00142712 0.00250215 0.00196377 0.00147452 0.0030457 0.00432113 0.00634796 0.00772111 0.00764564 0.00670029 0.00538409 0.00462965 0.00412291 0.00409612 0.00452107 0.00482707 0.00581888 0.00644853 0.00606192 0.00560628 0.00582516 0.00638866 0.00555819 0.00480657 0.00435805 0.00390382 0.00364434 0.00352387 0.00351219 0.00352225 0.00360933 0.00428751 0.00527533 0.00644337 0.00711261 0.00728034 0.00741454 0.00764418 0.0070866 0.00583372
285.51 0.00025 0.00420887 -0.00567576 -0.0443304 -0.0448985 -0.0139223 0.00180205 0.00780917 0.019937 0.0262274 0.0545154 0.0719378 0.0762246 0.0659997 0.0596798 0.0565283 0.043058 0.0304209 0.0043479 -0.0146341 -0.0397056 -0.0547093 -0.0427988 -0.0211119 -0.000777202 0.00895879 0.0111704 0.00356714 0.0064931 0.0196591 0.0244953 0.0264022 0.0305976 0.0258821 0.0152648 0.00660905 -0.00528423 -0.00847333 -0.00627323 -0.00444772 -0.00614464 -0.00356435 -0.00355765 -0.00363423 -0.00409899 -0.00474873 -0.00393585 -0.00219132 -0.00534623 -0.00829061 -0.0119816 -0.0141132 -0.0144837 -0.0151522 -0.0152052 -0.015934 -0.0181756 -0.0186882 -0.0151508 -0.0123358 -0.00344357 0.00135278 0.0024723 0.00178789 0.00122164 0.00291459 0.00429909 0.00638137 0.00772097 0.00763099 0.00674216 0.00545616 0.00468773 0.0041509 0.00406457 0.00449036 0.00481119 0.00578678 0.00641533 0.00602771 0.0055721 0.00577687 0.00636005 0.0055345 0.00479256 0.00434079 0.00385349 0.00361149 0.00351028 0.00349795 0.00350862 0.00359658 0.00427978 0.00526639 0.006433 0.00710904 0.00727993 0.0074074 0.007636 0.00706794 0.00581271
285.5125 0.00025 0.00420877 -0.00569398 -0.0442667 -0.0432712 -0.0128257 0.00370013 0.00964844 0.0220947 0.0274405 0.053967 0.0716418 0.0760299 0.0655744 0.0594423 0.0567828 0.0440607 0.0313045 0.00452334 -0.0145462 -0.0394383 -0.0550144 -0.0435874 -0.022024 -0.00118962 0.00949681 0.0124437 0.0047041 0.00723222 0.0203633 0.0250835 0.0267347 0.0307265 0.0258497 0.0153762 0.00679609 -0.00523568 -0.00871508 -0.0064604 -0.00456128 -0.00643319 -0.00378303 -0.00333712 -0.00350553 -0.00415496 -0.00495732 -0.0039918 -0.00218096 -0.0053942 -0.00852115 -0.0121243 -0.0141126 -0.0144187 -0.0150871 -0.0150237 -0.0155435 -0.0178281 -0.0186952 -0.0150423 -0.0124172 -0.00374149 0.00125751 0.00244619 0.00162777 0.000976017 0.00277928 0.00426934 0.00641106 0.00771944 0.00760907 0.0067776 0.00552905 0.0047474 0.00418208 0.00403554 0.00445891 0.00479307 0.00575345 0.00638147 0.00599376 0.00553779 0.00572733 0.00632899 0.00551078 0.0047784 0.00432419 0.00380413 0.00357765 0.00349668 0.00348346 0.00349457 0.00358349 0.00427209 0.00525762 0.00642226 0.00710488 0.00727896 0.00739985 0.00762762 0.00704915 0.00579143
285.515 0.00025 0.00413901 -0.00577971 -0.0440804 -0.0416109 -0.0118041 0.00555897 0.0114288 0.0241963 0.0288018 0.0535959 0.0714016 0.0758482 0.0650472 0.059216 0.0569717 0.0449886 0.0321404 0.00473567 -0.014499 -0.0390489 -0.0550611 -0.0443786 -0.0229981 -0.00167065 0.00982085 0.0136246 0.00587999 0.008008 0.0210834 0.0256921 0.0270821 0.0308352 0.0258132 0.0155321 0.00697772 -0.00519605 -0.00893893 -0.00667499 -0.00470598 -0.00672707 -0.00401204 -0.00309656 -0.00336548 -0.00420211 -0.00514276 -0.00405651 -0.00218168 -0.00543866 -0.00874575 -0.0122738 -0.0141149 -0.0143494 -0.0150268 -0.0148656 -0.0151827 -0.0174714 -0.018674 -0.0149274 -0.0124671 -0.00404473 0.00113858 0.00241981 0.0014827 0.000737316 0.00264088 0.00423186 0.00643661 0.00771606 0.00758046 0.00680647 0.00560198 0.00480848 0.00421617 0.00400914 0.00442684 0.00477261 0.00571895 0.00634703 0.00596015 0.00550347 0.00567668 0.00629547 0.00548698 0.00476423 0.00430811 0.00375586 0.00354278 0.00348296 0.0034687 0.0034801 0.00357006 0.00426439 0.00524898 0.00641118 0.00710009 0.00727737 0.00739181 0.00761897 0.00703018 0.00576983
285.5175 0.00025 0.00399853 -0.00591893 -0.0437736 -0.0399427 -0.0108477 0.00738179 0.0131594 0.0262008 0.0303052 0.0534277 0.0711859 0.0756965 0.0644534 0.0589914 0.0571012 0.0458319 0.0329128 0.00499311 -0.0144886 -0.0385601 -0.0548362 -0.0451354 -0.0240314 -0.00220099 0.00992848 0.0146818 0.00710467 0.00883198 0.0218145 0.0263155 0.0274476 0.0309329 0.0257833 0.0157343 0.007157 -0.00516389 -0.00914055 -0.0069228 -0.00488353 -0.00702433 -0.00424966 -0.00283961 -0.00321495 -0.0042436 -0.00530184 -0.00412753 -0.002195 -0.00548035 -0.00896458 -0.012429 -0.0141188 -0.0142772 -0.0149709 -0.0147286 -0.0148533 -0.0171081 -0.0186215 -0.0148048 -0.0124852 -0.00434802 0.000996296 0.00239073 0.00135275 0.000506596 0.00250096 0.0041879 0.00645749 0.0077115 0.00754613 0.00682855 0.00567428 0.00487072 0.00425305 0.00398596 0.0043946 0.00474993 0.00568326 0.00631207 0.0059269 0.00546921 0.00562518 0.00625937 0.00546287 0.00475011 0.0042925 0.00370882 0.00350713 0.00346924 0.0034538 0.00346526 0.0035564 0.00425677 0.00524053 0.00639987 0.00709484 0.00727529 0.00738342 0.00761015 0.00701108 0.00574797
285.52 0.00025 0.00379919 -0.00609973 -0.0433291 -0.0383018 -0.00994162 0.00913184 0.0148405 0.0280905 0.0319468 0.0534836 0.0709654 0.0755714 0.0638434 0.0587689 0.057185 0.0465796 0.0336086 0.00530083 -0.014505 -0.0380053 -0.0543461 -0.0458214 -0.0251232 -0.00278017 0.00981998 0.015581 0.00837257 0.00971335 0.0225484 0.0269454 0.0278315 0.0310213 0.0257651 0.0159809 0.00733165 -0.0051343 -0.00931609 -0.00720347 -0.00509496 -0.00732201 -0.00449053 -0.00257007 -0.00305432 -0.00427575 -0.00543182 -0.00420688 -0.00221901 -0.00551672 -0.00917573 -0.0125887 -0.0141247 -0.0142041 -0.0149188 -0.014611 -0.0145563 -0.0167437 -0.0185379 -0.0146757 -0.0124728 -0.00464683 0.000829119 0.00235455 0.00123823 0.000283523 0.00236056 0.00413722 0.00647215 0.00770506 0.00750628 0.00684364 0.0057455 0.00493428 0.00429245 0.0039661 0.00436231 0.00472482 0.00564626 0.00627649 0.00589388 0.00543501 0.00557301 0.00622065 0.00543829 0.00473609 0.00427712 0.00366291 0.00347064 0.00345533 0.0034387 0.00344998 0.00354239 0.00424914 0.00523222 0.00638827 0.00708899 0.0072726 0.00737456 0.00760103 0.00699182 0.00572578
285.5225 0.00025 0.00356361 -0.00629775 -0.0427596 -0.0367093 -0.0090851 0.0107905 0.0164822 0.0298455 0.0337071 0.0537823 0.0707235 0.0754652 0.063254 0.0585479 0.0572395 0.0472203 0.0342104 0.00565362 -0.0145289 -0.0374124 -0.0536076 -0.0463938 -0.0262624 -0.00341678 0.0095038 0.0162981 0.00967536 0.0106618 0.0232775 0.027566 0.0282362 0.0311099 0.0257635 0.0162689 0.00749848 -0.00510464 -0.00946641 -0.0075178 -0.00534508 -0.00762308 -0.00473774 -0.00229687 -0.00288459 -0.00430142 -0.00553018 -0.00429388 -0.00225436 -0.00554922 -0.00937965 -0.0127513 -0.014129 -0.0141297 -0.0148689 -0.01451 -0.0142909 -0.0163819 -0.0184223 -0.014538 -0.0124319 -0.00493633 0.000637802 0.00230841 0.00113739 6.77757e-05 0.00221942 0.00408072 0.00648016 0.00769658 0.00746179 0.00685185 0.00581507 0.00499915 0.00433428 0.00394996 0.0043302 0.00469738 0.00560787 0.00624039 0.00586106 0.00540088 0.0055204 0.00617936 0.00541307 0.00472221 0.00426192 0.0036182 0.00343343 0.00344119 0.00342348 0.00343431 0.00352809 0.00424148 0.00522405 0.00637642 0.0070826 0.00726931 0.00736528 0.00759172 0.00697245 0.00570337
285.525 0.00025 0.00330771 -0.00650463 -0.0420607 -0.0352075 -0.00825922 0.0123098 0.0180808 0.0314548 0.0355576 0.0543112 0.0704478 0.0753562 0.062707 0.05834 0.0572795 0.0477448 0.0347082 0.00603845 -0.0145443 -0.0368059 -0.0526496 -0.0468135 -0.0274256 -0.00412092 0.00899224 0.0168161 0.011003 0.0116811 0.0239928 0.0281645 0.0286535 0.0312049 0.0257829 0.0165952 0.0076543 -0.0050716 -0.0095923 -0.00786556 -0.00563472 -0.00792369 -0.00498406 -0.00202313 -0.00270414 -0.0043187 -0.00559654 -0.00438961 -0.00230131 -0.00557822 -0.00957511 -0.0129174 -0.0141338 -0.0140571 -0.0148227 -0.0144247 -0.0140578 -0.0160272 -0.0182767 -0.0143912 -0.0123646 -0.00521238 0.000423498 0.00224958 0.00105009 -0.000140314 0.00207866 0.00401983 0.00648146 0.00768627 0.00741358 0.00685353 0.00588238 0.0050649 0.0043782 0.00393768 0.00429857 0.00466773 0.00556812 0.00620384 0.00582861 0.00536687 0.00546757 0.00613558 0.00538709 0.00470865 0.00424698 0.00357477 0.00339572 0.00342688 0.00340823 0.0034183 0.00351355 0.00423387 0.00521608 0.00636443 0.0070757 0.00726549 0.00735559 0.00758221 0.00695297 0.00568071
285.5275 0.00025 0.00303989 -0.00671725 -0.0412435 -0.033822 -0.00743043 0.0136434 0.0196462 0.0329265 0.0374737 0.0550728 0.0701447 0.0752495 0.0622179 0.0581583 0.0573268 0.0481562 0.0351038 0.00644351 -0.0145262 -0.0361872 -0.051505 -0.0470539 -0.0285852 -0.00491425 0.00830253 0.0171269 0.0123354 0.0127777 0.0246898 0.0287249 0.029087 0.0313203 0.0258304 0.0169574 0.00779988 -0.00502647 -0.00969232 -0.00824073 -0.00596489 -0.00822692 -0.00523173 -0.00175328 -0.00251278 -0.00432724 -0.00562673 -0.0044933 -0.00235987 -0.00560209 -0.00976 -0.0130833 -0.0141352 -0.013985 -0.0147787 -0.0143521 -0.0138549 -0.0156841 -0.0181031 -0.014235 -0.012274 -0.0054715 0.000187449 0.00217504 0.000973807 -0.000340579 0.00193923 0.00395462 0.00647445 0.00767291 0.00736183 0.00684849 0.005947 0.00513147 0.00442372 0.00392948 0.00426759 0.00463588 0.00552685 0.00616693 0.00579628 0.00533298 0.00541471 0.00608934 0.0053602 0.00469542 0.00423221 0.00353259 0.00335755 0.00341233 0.00339295 0.00340194 0.00349872 0.00422625 0.00520828 0.00635222 0.00706834 0.00726114 0.00734549 0.00757254 0.00693341 0.00565786
285.53 0.00025 0.00277646 -0.00690348 -0.0403449 -0.032565 -0.00658389 0.0147591 0.0211695 0.0342687 0.0394277 0.0560476 0.0698202 0.0751325 0.0617789 0.0580222 0.0574013 0.0484586 0.035388 0.00684846 -0.0144639 -0.0355535 -0.050216 -0.0470928 -0.0297032 -0.00580763 0.00745617 0.0172303 0.0136498 0.0139471 0.0253679 0.0292315 0.0295317 0.0314647 0.0259104 0.0173516 0.00792995 -0.00496844 -0.00977053 -0.00864393 -0.00633751 -0.00853247 -0.00547917 -0.0014938 -0.00231071 -0.0043243 -0.00561956 -0.00460269 -0.00242837 -0.00562215 -0.00993323 -0.01325 -0.0141337 -0.013914 -0.0147372 -0.0142907 -0.0136814 -0.0153552 -0.0179029 -0.0140674 -0.0121612 -0.00570898 -6.50983e-05 0.00208316 0.000907866 -0.00053301 0.00180046 0.00388646 0.00646001 0.00765688 0.00730771 0.00683731 0.00600849 0.00519868 0.0044707 0.00392562 0.00423753 0.00460201 0.00548398 0.00612954 0.00576413 0.00529922 0.00536187 0.00604071 0.00533214 0.00468244 0.00421759 0.00349158 0.00331905 0.0033975 0.00337764 0.00338526 0.00348362 0.0042186 0.00520065 0.00633988 0.00706051 0.00725621 0.00733497 0.00756265 0.00691377 0.0056348
285.5325 0.00025 0.00251501 -0.0070704 -0.039394 -0.0314499 -0.00570526 0.0156441 0.0226226 0.0354879 0.041389 0.0572089 0.0694879 0.0749863 0.0613846 0.0579312 0.0575119 0.0486604 0.0355597 0.00723961 -0.01436 -0.0348953 -0.0488197 -0.0469266 -0.0307389 -0.00681583 0.00646108 0.0171194 0.0149259 0.0151805 0.0260298 0.0296671 0.0299795 0.0316497 0.026028 0.017772 0.00804627 -0.00489064 -0.00982688 -0.00906672 -0.00675216 -0.00884207 -0.0057256 -0.00124951 -0.00209923 -0.00430905 -0.00557614 -0.00471742 -0.00250495 -0.00563831 -0.0100942 -0.0134163 -0.0141282 -0.0138451 -0.0146987 -0.0142393 -0.0135356 -0.0150447 -0.01768 -0.0138875 -0.0120298 -0.00592337 -0.000332627 0.00197217 0.000848221 -0.000717473 0.00166269 0.00381558 0.00643719 0.007637 0.00725129 0.0068196 0.00606627 0.00526605 0.00451891 0.00392619 0.00420864 0.00456631 0.00543942 0.00609175 0.00573212 0.00526553 0.0053093 0.00598991 0.00530284 0.00466981 0.00420315 0.00345177 0.00328032 0.0033824 0.00336243 0.00336832 0.00346833 0.00421097 0.00519318 0.00632741 0.00705223 0.00725071 0.007324 0.00755259 0.00689408 0.00561159
285.535 0.00025 0.00227273 -0.0071975 -0.0384122 -0.0304568 -0.00479556 0.0162891 0.0239951 0.0366129 0.0433299 0.0584993 0.0691846 0.0747985 0.0610497 0.0578854 0.0576733 0.0487791 0.0356182 0.00759666 -0.0142259 -0.0342082 -0.0473575 -0.0465731 -0.0316665 -0.0079335 0.00533493 0.0168019 0.016137 0.0164626 0.0266778 0.0300202 0.0304231 0.0318819 0.0261868 0.0182115 0.00814866 -0.00478688 -0.00986525 -0.00950845 -0.00720506 -0.00915522 -0.00596972 -0.00102449 -0.00187919 -0.00427938 -0.00549706 -0.00483548 -0.00259214 -0.00565177 -0.0102406 -0.0135802 -0.0141192 -0.0137789 -0.0146626 -0.0141956 -0.0134147 -0.0147558 -0.0174372 -0.0136949 -0.0118808 -0.00611309 -0.000612307 0.00184055 0.000792673 -0.000894092 0.00152606 0.00374262 0.00640612 0.007613 0.00719361 0.00679639 0.00612056 0.00533327 0.00456798 0.00393112 0.00418118 0.00452891 0.00539309 0.00605354 0.00570011 0.00523199 0.00525708 0.00593709 0.00527218 0.00465747 0.00418888 0.00341307 0.00324144 0.00336696 0.00334729 0.00335111 0.0034528 0.00420328 0.00518586 0.00631483 0.0070435 0.00724465 0.00731261 0.0075423 0.00687431 0.00558818
285.5375 0.00025 0.00205069 -0.00727796 -0.0374088 -0.0295794 -0.00387134 0.0167172 0.0252362 0.037656 0.0452241 0.0598779 0.0689538 0.0745715 0.0607801 0.0578785 0.0578944 0.0488499 0.0355822 0.00791775 -0.0140618 -0.0334682 -0.0458381 -0.0460445 -0.0324515 -0.00913507 0.00409849 0.0162909 0.0172635 0.0177808 0.0273172 0.0302814 0.0308566 0.0321679 0.0263938 0.0186634 0.00824311 -0.0046552 -0.00988583 -0.00996394 -0.00769434 -0.00947256 -0.00621042 -0.000825674 -0.00165276 -0.00423356 -0.00538465 -0.00495607 -0.00269 -0.00566247 -0.0103734 -0.013741 -0.014106 -0.0137164 -0.0146321 -0.0141604 -0.0133156 -0.0144905 -0.0171785 -0.0134884 -0.0117179 -0.00627843 -0.000898732 0.00168787 0.000738725 -0.00106333 0.00139021 0.00366811 0.00636714 0.00758428 0.00713476 0.00676779 0.00617108 0.00540023 0.00461772 0.00394047 0.00415535 0.00448995 0.00534496 0.00601488 0.00566796 0.00519847 0.00520521 0.00588223 0.00523994 0.00464537 0.00417489 0.00337544 0.00320255 0.0033512 0.00333223 0.00333362 0.00343702 0.00419555 0.00517868 0.00630216 0.00703435 0.00723804 0.00730079 0.00753183 0.00685446 0.00556458
285.54 0.00025 0.00185477 -0.00732628 -0.0364215 -0.0288016 -0.00293651 0.0169628 0.0263192 0.0386458 0.0470489 0.061273 0.0688292 0.0742907 0.0605682 0.0578979 0.058167 0.0488796 0.0354552 0.00818124 -0.013878 -0.0326864 -0.0442877 -0.0453744 -0.033088 -0.0103995 0.00276192 0.0155939 0.0182794 0.0191164 0.0279456 0.0304526 0.0312708 0.0325119 0.026655 0.0191187 0.00833551 -0.00449131 -0.00988917 -0.0104289 -0.00821474 -0.00979667 -0.00644729 -0.000653173 -0.00142235 -0.00416761 -0.0052392 -0.0050742 -0.00279652 -0.00567165 -0.0104902 -0.0138973 -0.0140896 -0.0136558 -0.0146044 -0.0141284 -0.0132357 -0.0142489 -0.0169063 -0.0132676 -0.0115392 -0.00641802 -0.00118843 0.00151499 0.000683986 -0.00122475 0.0012544 0.00359158 0.00632032 0.00755006 0.00707535 0.00673441 0.00621752 0.00546624 0.00466789 0.00395414 0.00413146 0.00444977 0.00529519 0.00597589 0.00563594 0.00516515 0.00515387 0.00582576 0.00520613 0.00463344 0.00416117 0.00333882 0.0031637 0.00333506 0.00331729 0.00331595 0.00342107 0.00418781 0.00517167 0.00628941 0.00702479 0.00723087 0.00728857 0.00752118 0.00683461 0.00554091
285.5425 0.00025 0.00169231 -0.00732219 -0.03545 -0.0281006 -0.00199933 0.0170549 0.0272021 0.0395876 0.0487942 0.0626391 0.0688442 0.0739719 0.0604001 0.0579443 0.0584856 0.0488995 0.0352647 0.00838379 -0.0136751 -0.0318678 -0.0427021 -0.0445845 -0.0335721 -0.0116935 0.00134869 0.0147256 0.0191552 0.020457 0.0285651 0.0305379 0.0316527 0.0329114 0.026975 0.0195705 0.00843159 -0.00429242 -0.009878 -0.0108988 -0.0087597 -0.0101255 -0.00668004 -0.000511184 -0.00119373 -0.00408048 -0.00506481 -0.00518627 -0.00291457 -0.0056806 -0.0105912 -0.0140481 -0.0140697 -0.013599 -0.0145803 -0.014103 -0.0131733 -0.0140346 -0.0166262 -0.0130327 -0.0113482 -0.00653415 -0.00147769 0.00132217 0.00062543 -0.00137926 0.00112004 0.00351347 0.00626609 0.00751021 0.00701563 0.00669662 0.00625998 0.00553113 0.00471819 0.00397187 0.00410972 0.00440827 0.00524352 0.0059365 0.00560379 0.00513197 0.00510312 0.00576776 0.00517062 0.00462155 0.00414771 0.00330313 0.00312491 0.00331856 0.00330249 0.00329812 0.00340492 0.00418001 0.00516483 0.00627666 0.00701488 0.00722319 0.00727594 0.00751038 0.00681473 0.00551712
285.545 0.00025 0.0015584 -0.00725826 -0.0345186 -0.0274626 -0.00105129 0.0170197 0.0278651 0.0404909 0.0504342 0.063905 0.0689975 0.073637 0.0602425 0.0580239 0.058809 0.0489232 0.0350297 0.00851295 -0.0134501 -0.0310353 -0.041085 -0.0437077 -0.0339146 -0.0129802 -0.000115099 0.0137025 0.0198589 0.0217819 0.0291587 0.0305503 0.031994 0.0333645 0.0273572 0.0200074 0.00853971 -0.00405838 -0.00985371 -0.0113713 -0.00932598 -0.0104653 -0.00691 -0.000404279 -0.000971366 -0.00397018 -0.00486443 -0.0052919 -0.00304399 -0.00569149 -0.0106741 -0.0141887 -0.0140474 -0.0135449 -0.0145594 -0.0140808 -0.0131239 -0.0138468 -0.0163403 -0.0127846 -0.0111439 -0.00662815 -0.00176219 0.00111204 0.00056073 -0.00152733 0.000985966 0.00343296 0.00620503 0.00746427 0.00695581 0.00665512 0.00629855 0.0055947 0.00476866 0.00399369 0.00409042 0.00436595 0.00519007 0.0058966 0.00557139 0.00509884 0.00505285 0.00570835 0.00513336 0.00460966 0.0041346 0.00326838 0.00308622 0.00330166 0.00328782 0.00328013 0.00338855 0.00417214 0.00515812 0.00626387 0.0070046 0.00721495 0.00726287 0.00749938 0.00679483 0.0054932
285.5475 0.00025 0.00144254 -0.00715132 -0.033651 -0.0268579 -0.000101316 0.016886 0.0282967 0.0413602 0.0519721 0.0650307 0.0692993 0.073329 0.0600733 0.0581426 0.0591108 0.0489577 0.034773 0.00856933 -0.0131956 -0.030208 -0.0394385 -0.0427588 -0.034132 -0.0142274 -0.00159393 0.0125439 0.0203733 0.0230745 0.0297224 0.0305095 0.0322915 0.0338648 0.0278015 0.0204214 0.00866722 -0.00378859 -0.00981746 -0.011845 -0.00990894 -0.0108138 -0.00713691 -0.000332104 -0.000760269 -0.00383693 -0.00464242 -0.00538395 -0.00318317 -0.00570434 -0.0107393 -0.0143191 -0.0140248 -0.0134954 -0.0145419 -0.0140629 -0.0130875 -0.0136864 -0.0160528 -0.0125249 -0.0109269 -0.00670051 -0.00203886 0.000886773 0.000488036 -0.00166963 0.000852578 0.00335017 0.00613774 0.00741139 0.00689551 0.00661049 0.00633304 0.00565645 0.00481873 0.00401926 0.00407376 0.0043229 0.00513483 0.00585606 0.00553885 0.00506593 0.00500327 0.00564779 0.00509439 0.00459763 0.00412193 0.00323457 0.00304776 0.00328439 0.00327329 0.00326205 0.00337206 0.00416419 0.00515156 0.00625108 0.006994 0.00720617 0.00724939 0.0074882 0.00677491 0.00546922
285.55 0.00025 0.00134463 -0.00701034 -0.0328576 -0.0262552 0.000871669 0.0166848 0.028507 0.0422038 0.0533931 0.0659757 0.0697049 0.0730893 0.0598744 0.0583155 0.0593684 0.049013 0.0345082 0.00855489 -0.0129069 -0.0294097 -0.0377741 -0.0417478 -0.0342396 -0.0154064 -0.0030537 0.0112703 0.0206755 0.0243064 0.0302458 0.030436 0.0325468 0.0344045 0.0283081 0.0208058 0.00882062 -0.00348226 -0.0097714 -0.0123176 -0.0105011 -0.011173 -0.0073638 -0.000293696 -0.000564228 -0.00367931 -0.00439999 -0.00545974 -0.00332995 -0.00572361 -0.0107866 -0.0144361 -0.0140015 -0.0134496 -0.0145267 -0.0140474 -0.0130603 -0.0135523 -0.0157658 -0.0122548 -0.0106977 -0.00675315 -0.00230552 0.000649432 0.000405106 -0.0018077 0.000720365 0.0032649 0.00606468 0.00735191 0.006835 0.0065632 0.00636395 0.00571626 0.00486845 0.00404837 0.00406015 0.00427959 0.00507806 0.00581502 0.00550607 0.0050331 0.0049543 0.00558626 0.00505373 0.00458534 0.00410969 0.00320173 0.00300956 0.00326682 0.00325897 0.00324391 0.00335539 0.00415615 0.00514519 0.00623831 0.0069831 0.0071969 0.00723554 0.00747684 0.006755 0.00544515
285.5525 0.00025 0.00125457 -0.00684753 -0.0321403 -0.025628 0.00185661 0.0164525 0.0285192 0.0430225 0.0546797 0.0667271 0.0701751 0.0729499 0.0596482 0.0585363 0.0595483 0.0490906 0.0342618 0.00848878 -0.0125797 -0.0286511 -0.0361058 -0.0406824 -0.0342623 -0.0165028 -0.00445609 0.00991053 0.0207545 0.0254427 0.0307152 0.0303441 0.0327598 0.0349673 0.0288658 0.0211532 0.00900427 -0.00313822 -0.00971581 -0.0127855 -0.011096 -0.0115393 -0.00759019 -0.000288897 -0.000391462 -0.00350244 -0.0041441 -0.00551458 -0.0034855 -0.00575026 -0.010815 -0.0145368 -0.0139779 -0.0134087 -0.0145138 -0.0140338 -0.0130416 -0.0134431 -0.0154824 -0.0119769 -0.0104567 -0.00678656 -0.00256018 0.000403241 0.000311408 -0.00194246 0.0005891 0.00317665 0.00598588 0.00728513 0.00677407 0.00651398 0.00639096 0.00577381 0.00491742 0.0040807 0.00404972 0.00423616 0.00501969 0.00577322 0.00547291 0.00500036 0.00490591 0.00552387 0.00501136 0.00457266 0.00409787 0.00316987 0.00297169 0.00324893 0.00324488 0.00322581 0.00333865 0.00414804 0.00513896 0.0062256 0.00697192 0.00718712 0.0072213 0.00746533 0.00673512 0.00542106
285.555 0.00025 0.00117678 -0.00666866 -0.031518 -0.024956 0.00283365 0.0162156 0.0283636 0.0438114 0.0558129 0.0672713 0.0706583 0.0729315 0.0594097 0.058794 0.0596326 0.0491861 0.0340435 0.00838176 -0.0122285 -0.0279441 -0.0344594 -0.0395687 -0.0342099 -0.0175015 -0.00577327 0.00850003 0.0206092 0.0264426 0.0311267 0.0302492 0.03294 0.0355456 0.0294652 0.0214614 0.00922323 -0.00275703 -0.00965231 -0.0132484 -0.0116921 -0.0119134 -0.00782114 -0.000315242 -0.00023969 -0.00330462 -0.00387499 -0.00554412 -0.00364471 -0.00578566 -0.0108234 -0.01462 -0.0139549 -0.013374 -0.0145037 -0.0140209 -0.0130287 -0.0133579 -0.0152051 -0.0116936 -0.0102046 -0.00680215 -0.00280124 0.000151757 0.000204592 -0.00207539 0.000459521 0.00308415 0.00590198 0.00721167 0.00671199 0.00646325 0.00641434 0.00582946 0.00496588 0.00411601 0.00404253 0.00419288 0.00495997 0.00573084 0.00543946 0.00496787 0.00485825 0.0054609 0.00496752 0.00455958 0.00408656 0.00313898 0.00293415 0.00323069 0.00323099 0.00320778 0.00332178 0.00413983 0.00513288 0.00621294 0.00696046 0.00717687 0.00720668 0.00745365 0.00671527 0.00539695
285.5575 0.00025 0.00110506 -0.00648747 -0.0309726 -0.0242087 0.00378746 0.0160274 0.028108 0.0445699 0.0567716 0.0676087 0.0711062 0.0730442 0.0591883 0.0590739 0.0596048 0.0492895 0.033855 0.0082595 -0.0118642 -0.0272885 -0.0328627 -0.0384139 -0.0341017 -0.0184041 -0.00698716 0.0070765 0.0202485 0.027262 0.0314732 0.0301625 0.0331066 0.0361319 0.0300934 0.0217308 0.00947881 -0.00233672 -0.00957827 -0.0137007 -0.0122841 -0.0122885 -0.00805777 -0.000369858 -0.000115743 -0.00309485 -0.00359948 -0.00554737 -0.00380966 -0.00583409 -0.0108124 -0.0146829 -0.0139325 -0.0133461 -0.0144941 -0.0140084 -0.0130214 -0.0132949 -0.014936 -0.0114076 -0.0099424 -0.00679973 -0.00302763 -0.000101273 8.61833e-05 -0.00220783 0.000331412 0.00298794 0.00581342 0.00713093 0.00664893 0.00641168 0.00643446 0.00588239 0.00501316 0.00415383 0.00403877 0.00415006 0.00489894 0.00568764 0.00540555 0.00493544 0.00481114 0.00539736 0.00492214 0.00454582 0.00407568 0.00310905 0.00289694 0.00321213 0.00321728 0.00318978 0.00330481 0.00413145 0.0051269 0.0062003 0.00694875 0.00716612 0.00719166 0.00744177 0.00669545 0.00537282
285.56 0.00025 0.00103546 -0.00630867 -0.0305025 -0.0233631 0.00470827 0.0159061 0.0277755 0.0452832 0.0575602 0.0677444 0.0714751 0.0732825 0.0590207 0.0593593 0.0594533 0.0494043 0.0337053 0.00815109 -0.0115013 -0.0266848 -0.0313412 -0.037217 -0.0339436 -0.0192107 -0.0080869 0.00567934 0.0196894 0.027863 0.0317514 0.0300865 0.0332725 0.036717 0.0307311 0.0219621 0.00977433 -0.00187625 -0.00949392 -0.0141415 -0.0128696 -0.0126653 -0.00830283 -0.000450992 -2.10559e-05 -0.0028758 -0.00331799 -0.00552177 -0.0039749 -0.0058971 -0.010783 -0.0147252 -0.0139105 -0.0133272 -0.0144869 -0.0139952 -0.01302 -0.0132517 -0.0146764 -0.0111223 -0.00967249 -0.00678095 -0.00323985 -0.000353227 -4.46393e-05 -0.00234119 0.000204429 0.00288744 0.00571986 0.00704387 0.00658434 0.00635919 0.00645135 0.005933 0.00505897 0.00419363 0.00403851 0.00410794 0.00483679 0.00564356 0.00537106 0.0049031 0.00476464 0.00533345 0.00487542 0.0045313 0.00406517 0.00308015 0.00286006 0.00319324 0.0032038 0.00317193 0.00328778 0.00412299 0.00512109 0.00618773 0.00693678 0.0071549 0.00717625 0.00742972 0.00667566 0.00534867
285.5625 0.00025 0.000973595 -0.00613082 -0.0300953 -0.0224104 0.00559962 0.0159002 0.0274294 0.0459343 0.0581745 0.0676807 0.0717293 0.0736284 0.0589417 0.0596483 0.0591752 0.0495219 0.0335902 0.0080809 -0.0111489 -0.0261313 -0.0299172 -0.0359891 -0.0337383 -0.0199207 -0.00907295 0.00435131 0.0189544 0.028213 0.0319506 0.0300197 0.0334559 0.037298 0.0313602 0.0221561 0.010103 -0.00137951 -0.00939751 -0.014567 -0.0134452 -0.0130358 -0.00855578 -0.000554595 4.6909e-05 -0.00265299 -0.00303382 -0.00546278 -0.00413815 -0.00597481 -0.0107343 -0.014745 -0.0138892 -0.0133182 -0.0144799 -0.0139803 -0.0130243 -0.0132272 -0.0144276 -0.0108411 -0.00939698 -0.00674498 -0.00343639 -0.000600102 -0.000186221 -0.00247564 7.93008e-05 0.00278255 0.00562175 0.00695092 0.00651803 0.0063064 0.00646524 0.00598165 0.00510367 0.00423537 0.00404205 0.00406693 0.00477377 0.00559859 0.00533601 0.00487091 0.00471875 0.00526922 0.00482751 0.00451602 0.00405507 0.00305231 0.0028236 0.00317402 0.00319055 0.0031543 0.00327073 0.00411439 0.00511543 0.00617528 0.00692466 0.00714327 0.00716053 0.00741758 0.00665601 0.00532461
285.565 0.00025 0.000911972 -0.00596137 -0.029719 -0.0213783 0.00644448 0.0160292 0.027106 0.0465102 0.0586265 0.0674233 0.0718505 0.0740545 0.0589824 0.059935 0.0587644 0.0496315 0.0335152 0.00807549 -0.0108139 -0.0256305 -0.0286051 -0.0347435 -0.0334947 -0.0205347 -0.0099595 0.0031244 0.018073 0.0282969 0.0320634 0.029957 0.033667 0.0378721 0.0319652 0.0223157 0.0104626 -0.000850379 -0.00929008 -0.0149778 -0.0140124 -0.0133987 -0.00881931 -0.000680576 8.49978e-05 -0.00243598 -0.00274963 -0.00537045 -0.00429529 -0.00606946 -0.0106694 -0.0147408 -0.0138671 -0.0133213 -0.0144736 -0.0139621 -0.0130332 -0.013217 -0.0141906 -0.0105655 -0.00911759 -0.00669318 -0.00361815 -0.000839838 -0.000337262 -0.00261451 -4.57807e-05 0.00267229 0.00551844 0.00685142 0.00644948 0.00625315 0.00647613 0.006028 0.00514669 0.00427831 0.00404913 0.00402711 0.00471003 0.00555276 0.00530037 0.00483882 0.00467341 0.00520484 0.00477852 0.00449984 0.00404531 0.00302556 0.00278758 0.00315444 0.00317753 0.00313692 0.00325368 0.00410569 0.00510989 0.00616293 0.00691232 0.0071312 0.00714443 0.00740524 0.0066364 0.00530058
285.5675 0.00025 0.00085608 -0.00578307 -0.0293724 -0.0202798 0.00724021 0.0162966 0.0268509 0.0469898 0.058924 0.066977 0.0718259 0.0745256 0.0591599 0.0602121 0.058226 0.0497269 0.0334816 0.00814129 -0.0104954 -0.025183 -0.0274204 -0.0335001 -0.0332189 -0.0210518 -0.0107622 0.00201836 0.0170755 0.028111 0.0320732 0.0298879 0.0339152 0.0384419 0.0325352 0.0224446 0.0108463 -0.000292679 -0.00916526 -0.0153685 -0.0145708 -0.0137522 -0.00909077 -0.000827359 9.4262e-05 -0.00222932 -0.00247013 -0.00524541 -0.00444557 -0.00618196 -0.0105896 -0.0147127 -0.0138412 -0.013337 -0.0144674 -0.0139404 -0.0130482 -0.0132196 -0.0139659 -0.0102986 -0.0088374 -0.0066246 -0.00378496 -0.00107121 -0.000496001 -0.00275646 -0.000169752 0.00255814 0.00541043 0.00674661 0.00637844 0.00619969 0.00648433 0.00607251 0.00518813 0.00432219 0.00405987 0.00398871 0.00464567 0.00550596 0.00526397 0.00480678 0.00462854 0.00514026 0.00472856 0.00448264 0.00403575 0.00299987 0.00275202 0.0031345 0.0031647 0.0031198 0.00323658 0.00409675 0.00510444 0.00615063 0.00689982 0.00711869 0.00712797 0.0073927 0.0066168 0.00527652