285.5025 0.00025 -0.0161444 -0.0683103 -0.141481 -0.145162 -0.15491 -0.149343 -0.153233 -0.146956 -0.150425 -0.151426 -0.151174 -0.14639 -0.141373 -0.132535 -0.128994 -0.125959 -0.125581 -0.123007 -0.122085 -0.117975 -0.110152 -0.103536 -0.103 -0.0996808 -0.097524 -0.0927233 -0.0844267 -0.0805613 -0.079819 -0.0808273 -0.0833759 -0.081717 -0.077595 -0.072267 -0.0720743 -0.067466 -0.0635599 -0.0589817 -0.0567133 -0.0570657 -0.0562145 -0.0547279 -0.0532748 -0.0534261 -0.0536054 -0.0515544 -0.0518351 -0.0514416 -0.0482907 -0.043109 -0.0415128 -0.0423179 -0.0431192 -0.0421918 -0.0415619 -0.0414742 -0.0408606 -0.0401063 -0.0392017 -0.0358828 -0.0340912 -0.0307476 -0.0266863 -0.0245132 -0.0224481 -0.0198222 -0.0175896 -0.0155662 -0.0123214 -0.00938945 -0.00700274 -0.00574263 -0.00545265 -0.00538691 -0.00514664 -0.00511287 -0.00522548 -0.0054224 -0.00529618 -0.00524473 -0.00492437 -0.00485837 -0.00503065 -0.00504991 -0.00499568 -0.00453394 -0.0036683 -0.0030021 -0.00256074 -0.00214022 -0.0018676 -0.00165783 -0.0015967 -0.0015368 -0.00120733 -0.00096521 -0.000794332 -0.000296081 -0.000103797 -3.64373e-05
285.505 0.00025 -0.0161904 -0.0682234 -0.141098 -0.144826 -0.154837 -0.149166 -0.152857 -0.146963 -0.149928 -0.151431 -0.151246 -0.146978 -0.141412 -0.132265 -0.12925 -0.126071 -0.125743 -0.123394 -0.122252 -0.118064 -0.110206 -0.103295 -0.102322 -0.0989458 -0.097642 -0.0935003 -0.085307 -0.0812132 -0.0803708 -0.0811315 -0.0832382 -0.0812785 -0.077021 -0.0718939 -0.0713752 -0.0669515 -0.0637062 -0.0591349 -0.0565063 -0.0568858 -0.0561196 -0.054827 -0.0532333 -0.0531376 -0.0532892 -0.0512493 -0.0517635 -0.0514184 -0.0484093 -0.0432598 -0.0413887 -0.0419793 -0.0427624 -0.0421148 -0.0416746 -0.0413945 -0.0408575 -0.0400727 -0.0393113 -0.0360571 -0.034207 -0.0308515 -0.0267101 -0.0244503 -0.02246 -0.019841 -0.0176396 -0.0156661 -0.0124223 -0.00947972 -0.007065 -0.0057407 -0.00539611 -0.00530593 -0.00508751 -0.00507467 -0.00518416 -0.00537165 -0.00525401 -0.0052186 -0.00492394 -0.00486608 -0.00502909 -0.00504631 -0.00499076 -0.00454285 -0.00368175 -0.00300948 -0.00256131 -0.0021347 -0.00185872 -0.0016431 -0.00157599 -0.00152282 -0.0012016 -0.000965045 -0.000795768 -0.000296525 -0.00010059 -3.5988e-05
285.5075 0.00025 -0.0162262 -0.0680934 -0.140661 -0.144429 -0.154647 -0.149025 -0.15259 -0.146964 -0.14956 -0.151258 -0.151212 -0.147543 -0.141537 -0.132137 -0.12953 -0.126199 -0.12589 -0.123762 -0.122432 -0.118121 -0.110287 -0.103075 -0.101655 -0.0982544 -0.0977263 -0.0941436 -0.0862199 -0.0819632 -0.0810038 -0.0814844 -0.0830992 -0.0808008 -0.0764368 -0.0715403 -0.0706752 -0.0664476 -0.0638305 -0.0593075 -0.0563277 -0.0566811 -0.0560224 -0.0549535 -0.0532384 -0.0528544 -0.0529678 -0.050973 -0.0516952 -0.0513636 -0.0485128 -0.0434285 -0.0412932 -0.0416415 -0.0423902 -0.0420281 -0.0417965 -0.0413192 -0.0408631 -0.0400307 -0.0394029 -0.0362385 -0.0343192 -0.0309462 -0.0267484 -0.0243934 -0.022465 -0.0198536 -0.017684 -0.0157635 -0.0125276 -0.00957052 -0.00713232 -0.0057472 -0.00534521 -0.0052241 -0.00502542 -0.00503712 -0.00514426 -0.00532095 -0.0052115 -0.00519112 -0.00492186 -0.00487385 -0.00502823 -0.00504392 -0.0049866 -0.00455056 -0.00369402 -0.0030169 -0.00256254 -0.00212956 -0.0018502 -0.00162899 -0.00155548 -0.0015084 -0.00119575 -0.000964856 -0.000797082 -0.000297094 -9.75093e-05 -3.55447e-05
285.51 0.00025 -0.0162406 -0.0679054 -0.140237 -0.143997 -0.154358 -0.148905 -0.152434 -0.146888 -0.149301 -0.150955 -0.151073 -0.148076 -0.141718 -0.132158 -0.129817 -0.126338 -0.12598 -0.124089 -0.122636 -0.118157 -0.110384 -0.102883 -0.101013 -0.0976365 -0.0977644 -0.0946264 -0.0871476 -0.0828022 -0.0817236 -0.0818994 -0.0829706 -0.0802913 -0.0758316 -0.0711964 -0.0699846 -0.0659612 -0.0639227 -0.059501 -0.0561818 -0.0564603 -0.0559235 -0.0551045 -0.0532883 -0.0525728 -0.0526358 -0.0507268 -0.0516301 -0.0512829 -0.0485958 -0.0436079 -0.0412275 -0.0413054 -0.0420033 -0.0419291 -0.0419226 -0.0412514 -0.040881 -0.0399857 -0.039474 -0.0364271 -0.0344319 -0.0310317 -0.026801 -0.0243442 -0.0224651 -0.019861 -0.0177223 -0.0158576 -0.0126379 -0.00966277 -0.00720355 -0.00576171 -0.00530002 -0.00514214 -0.00496048 -0.00500024 -0.00510565 -0.00527027 -0.00516846 -0.00516234 -0.00491819 -0.00488143 -0.0050278 -0.00504249 -0.00498334 -0.00455732 -0.00370502 -0.00302415 -0.00256446 -0.00212491 -0.00184203 -0.00161542 -0.00153513 -0.00149362 -0.00118966 -0.000964628 -0.000798397 -0.000297736 -9.45693e-05 -3.50785e-05
285.5125 0.00025 -0.0162383 -0.0676644 -0.13979 -0.143477 -0.153936 -0.148808 -0.152433 -0.146736 -0.149154 -0.150571 -0.15084 -0.148556 -0.141935 -0.132353 -0.130097 -0.126509 -0.126017 -0.124378 -0.122863 -0.118185 -0.110482 -0.10271 -0.100396 -0.0971108 -0.0977527 -0.0949484 -0.0880776 -0.0837296 -0.0825267 -0.0823689 -0.0828489 -0.0797572 -0.0752123 -0.0708489 -0.0693064 -0.0655033 -0.0639762 -0.0597094 -0.0560703 -0.0562179 -0.0558251 -0.0552748 -0.0533814 -0.0523012 -0.0522964 -0.0505122 -0.0515683 -0.0511735 -0.048657 -0.0437982 -0.0411905 -0.0409736 -0.0416042 -0.0418168 -0.0420512 -0.0411907 -0.040907 -0.0399412 -0.0395256 -0.0366197 -0.0345452 -0.0311095 -0.0268662 -0.0243044 -0.0224605 -0.0198632 -0.0177539 -0.0159475 -0.0127524 -0.00975684 -0.00727828 -0.00578428 -0.00526082 -0.0050608 -0.00489328 -0.00496338 -0.00506857 -0.00521996 -0.0051249 -0.00513249 -0.00491293 -0.00488857 -0.00502768 -0.00504225 -0.00498134 -0.00456319 -0.00371493 -0.00303127 -0.00256702 -0.00212079 -0.00183431 -0.00160244 -0.00151494 -0.00147833 -0.00118337 -0.000964309 -0.000799649 -0.000298435 -9.16682e-05 -3.46542e-05
285.515 0.00025 -0.0162222 -0.0673645 -0.13932 -0.142913 -0.153439 -0.148731 -0.15257 -0.146515 -0.149107 -0.150127 -0.150505 -0.148997 -0.142113 -0.132676 -0.130374 -0.126712 -0.12601 -0.124622 -0.123083 -0.118209 -0.110576 -0.102551 -0.0998191 -0.0967042 -0.0976925 -0.095112 -0.0889917 -0.0847233 -0.0834011 -0.0828982 -0.0827523 -0.0792082 -0.0745836 -0.0704977 -0.0686507 -0.0650782 -0.0639876 -0.059921 -0.0559933 -0.0559619 -0.0557232 -0.0554699 -0.0535135 -0.0520392 -0.0519536 -0.0503354 -0.0515106 -0.0510405 -0.0486972 -0.0439939 -0.0411827 -0.0406505 -0.0411972 -0.0416937 -0.0421767 -0.0411365 -0.0409427 -0.0398992 -0.0395568 -0.0368149 -0.0346586 -0.0311787 -0.026941 -0.0242756 -0.0224529 -0.0198602 -0.0177776 -0.0160329 -0.0128717 -0.00985338 -0.00735557 -0.00581429 -0.00522779 -0.00498031 -0.00482307 -0.00492602 -0.00503261 -0.00517012 -0.00508101 -0.00510171 -0.00490613 -0.00489506 -0.00502794 -0.00504301 -0.00498059 -0.00456845 -0.00372357 -0.00303816 -0.00257024 -0.00211713 -0.00182687 -0.00158998 -0.00149498 -0.00146267 -0.00117691 -0.000963983 -0.00080083 -0.000299242 -8.88735e-05 -3.41789e-05
285.5175 0.00025 -0.0161895 -0.067024 -0.138809 -0.142286 -0.152884 -0.148632 -0.152796 -0.146244 -0.149114 -0.149685 -0.150129 -0.149373 -0.142267 -0.133146 -0.130657 -0.126942 -0.125978 -0.124814 -0.123279 -0.118231 -0.110673 -0.102417 -0.09929 -0.0964302 -0.0975706 -0.0951186 -0.0898837 -0.0857654 -0.0843308 -0.0834779 -0.0826764 -0.0786545 -0.0739409 -0.0701329 -0.0680225 -0.0646888 -0.0639553 -0.060124 -0.0559507 -0.0556962 -0.0556194 -0.055674 -0.0536832 -0.0518009 -0.0516063 -0.0501872 -0.051457 -0.0508814 -0.0487107 -0.0441917 -0.0412016 -0.0403359 -0.0407867 -0.0415563 -0.0422976 -0.0410907 -0.0409829 -0.0398614 -0.0395698 -0.0370109 -0.0347748 -0.031244 -0.027026 -0.0242591 -0.022442 -0.0198531 -0.0177935 -0.0161127 -0.0129947 -0.00995285 -0.00743485 -0.00585157 -0.0052007 -0.00490121 -0.00475124 -0.00488831 -0.00499776 -0.00512092 -0.00503703 -0.00507006 -0.00489786 -0.00490067 -0.00502813 -0.00504435 -0.00498091 -0.00457326 -0.00373103 -0.0030446 -0.00257399 -0.00211401 -0.00181984 -0.00157816 -0.00147526 -0.00144658 -0.00117018 -0.0009636 -0.000802068 -0.000300243 -8.63108e-05 -3.37975e-05
285.52 0.00025 -0.0161466 -0.0666512 -0.13825 -0.141579 -0.152305 -0.14851 -0.15313 -0.145978 -0.149135 -0.14922 -0.149709 -0.149669 -0.14235 -0.133674 -0.130938 -0.127198 -0.125939 -0.12496 -0.123439 -0.118246 -0.110778 -0.102308 -0.0988118 -0.096283 -0.0973956 -0.0949944 -0.0907354 -0.0868347 -0.0853074 -0.0841037 -0.0826322 -0.0781084 -0.073295 -0.0697562 -0.0674292 -0.0643417 -0.0638832 -0.0603161 -0.0559336 -0.0554207 -0.0555103 -0.0558977 -0.0538844 -0.051584 -0.0512597 -0.0500712 -0.0514044 -0.0507017 -0.0487024 -0.0443879 -0.0412476 -0.0400351 -0.0403756 -0.0414049 -0.0424085 -0.0410504 -0.0410298 -0.0398321 -0.0395666 -0.0372042 -0.0348914 -0.0313024 -0.0271193 -0.0242541 -0.02243 -0.0198438 -0.0178009 -0.0161856 -0.0131213 -0.0100567 -0.00751574 -0.00589533 -0.00517981 -0.00482442 -0.00467744 -0.00484933 -0.00496347 -0.00507224 -0.00499269 -0.00503767 -0.00488846 -0.00490535 -0.0050282 -0.00504627 -0.00498243 -0.00457797 -0.00373747 -0.00305059 -0.00257833 -0.00211149 -0.00181315 -0.00156688 -0.00145576 -0.00143009 -0.00116323 -0.000963016 -0.00080317 -0.000301314 -8.38035e-05 -3.33404e-05
285.5225 0.00025 -0.0160945 -0.0662387 -0.137619 -0.140804 -0.151766 -0.148365 -0.153506 -0.145731 -0.149124 -0.148782 -0.149303 -0.149889 -0.142403 -0.134227 -0.131215 -0.127453 -0.125903 -0.125048 -0.123536 -0.118273 -0.11092 -0.102245 -0.0984014 -0.0962551 -0.0971729 -0.094763 -0.0915466 -0.0879156 -0.0863226 -0.0847664 -0.082616 -0.077583 -0.0726509 -0.0693551 -0.0668752 -0.0640254 -0.0637752 -0.0604979 -0.0559476 -0.0551469 -0.0553985 -0.0561316 -0.0541109 -0.0513955 -0.050914 -0.0499862 -0.0513556 -0.0505011 -0.048674 -0.0445836 -0.0413151 -0.0397467 -0.0399678 -0.0412383 -0.0425076 -0.0410171 -0.0410806 -0.0398102 -0.0395479 -0.0373915 -0.0350095 -0.0313573 -0.0272195 -0.0242628 -0.0224171 -0.0198325 -0.0178002 -0.0162511 -0.0132507 -0.0101655 -0.00759809 -0.00594487 -0.00516554 -0.00475027 -0.00460197 -0.00480921 -0.00493001 -0.00502464 -0.00494822 -0.00500465 -0.00487762 -0.00490881 -0.00502809 -0.00504873 -0.00498515 -0.00458268 -0.00374291 -0.00305603 -0.00258319 -0.00210957 -0.0018068 -0.00155622 -0.0014365 -0.00141319 -0.00115604 -0.000962411 -0.000804257 -0.000302503 -8.1437e-05 -3.28664e-05
285.525 0.00025 -0.0160368 -0.0658104 -0.136939 -0.139966 -0.151255 -0.148206 -0.153865 -0.145527 -0.149087 -0.148395 -0.148922 -0.150013 -0.14242 -0.134718 -0.13152 -0.127713 -0.125903 -0.125093 -0.123549 -0.118308 -0.111086 -0.102234 -0.0980559 -0.0963141 -0.0969086 -0.0944563 -0.0923022 -0.0889924 -0.087369 -0.0854431 -0.0826366 -0.0771034 -0.0720164 -0.0689353 -0.0663656 -0.0637504 -0.0636367 -0.0606546 -0.055985 -0.0548865 -0.0552831 -0.0563669 -0.054356 -0.0512404 -0.0505746 -0.049925 -0.0513082 -0.0502817 -0.0486246 -0.044772 -0.0414021 -0.039473 -0.0395693 -0.0410595 -0.0425897 -0.0409909 -0.0411362 -0.0397963 -0.0395165 -0.0375739 -0.0351274 -0.0314076 -0.0273257 -0.0242844 -0.0224048 -0.0198205 -0.0177913 -0.0163083 -0.0133821 -0.0102798 -0.00768218 -0.00600011 -0.00515694 -0.00467892 -0.0045255 -0.00476775 -0.00489697 -0.00497784 -0.00490368 -0.004971 -0.00486575 -0.00491131 -0.00502747 -0.00505126 -0.00498896 -0.00458762 -0.00374743 -0.00306078 -0.00258842 -0.00210816 -0.00180081 -0.00154615 -0.0014176 -0.00139599 -0.00114866 -0.000961606 -0.00080519 -0.000303793 -7.92624e-05 -3.24486e-05
285.5275 0.00025 -0.0159695 -0.0653817 -0.136216 -0.139079 -0.150846 -0.148059 -0.154188 -0.145392 -0.149027 -0.148045 -0.148575 -0.150035 -0.142418 -0.13516 -0.131828 -0.127936 -0.125949 -0.125109 -0.123469 -0.118363 -0.11126 -0.102276 -0.0977936 -0.0964337 -0.0966244 -0.0941204 -0.0930016 -0.0900352 -0.0884276 -0.0861256 -0.0826938 -0.0766766 -0.0714015 -0.068492 -0.065899 -0.0635036 -0.0634715 -0.0607829 -0.0560367 -0.0546459 -0.0551698 -0.056601 -0.0546216 -0.0511246 -0.0502462 -0.0498861 -0.0512583 -0.0500496 -0.0485579 -0.0449522 -0.0415035 -0.0392156 -0.039182 -0.0408649 -0.042654 -0.0409709 -0.041192 -0.0397942 -0.0394767 -0.0377482 -0.0352447 -0.0314581 -0.0274369 -0.0243193 -0.0223944 -0.0198094 -0.0177748 -0.0163568 -0.0135147 -0.0104 -0.00776749 -0.00605963 -0.00515462 -0.00461149 -0.00444804 -0.00472452 -0.00486418 -0.00493235 -0.00485911 -0.0049367 -0.00485295 -0.00491251 -0.00502634 -0.00505401 -0.00499378 -0.0045929 -0.00375097 -0.00306499 -0.00259406 -0.00210732 -0.00179516 -0.00153664 -0.00139893 -0.0013784 -0.00114106 -0.000960762 -0.000806127 -0.000305148 -7.71117e-05 -3.19677e-05
285.53 0.00025 -0.0159091 -0.0649859 -0.135467 -0.138163 -0.150491 -0.147983 -0.154466 -0.145303 -0.148957 -0.147742 -0.14829 -0.149969 -0.142391 -0.135518 -0.132142 -0.128112 -0.126039 -0.125106 -0.123284 -0.118437 -0.111452 -0.102385 -0.0976248 -0.0965827 -0.0963238 -0.093788 -0.0936485 -0.0910423 -0.0894845 -0.0867941 -0.0827835 -0.0763205 -0.070825 -0.0680293 -0.0654814 -0.0632902 -0.0632849 -0.0608792 -0.0560949 -0.0544262 -0.0550552 -0.0568214 -0.0548964 -0.0510518 -0.0499359 -0.049864 -0.0512081 -0.0498068 -0.0484738 -0.04512 -0.0416207 -0.0389789 -0.0388121 -0.0406597 -0.0426999 -0.0409532 -0.041249 -0.0398022 -0.0394294 -0.0379122 -0.0353587 -0.0315095 -0.0275532 -0.0243656 -0.0223865 -0.0198 -0.017751 -0.0163948 -0.0136468 -0.0105262 -0.00785508 -0.00612319 -0.00515775 -0.00454786 -0.00437059 -0.00467962 -0.00483146 -0.00488798 -0.00481465 -0.00490209 -0.00483935 -0.00491254 -0.00502453 -0.00505683 -0.00499959 -0.00459881 -0.00375383 -0.00306852 -0.0026001 -0.00210711 -0.00178992 -0.00152778 -0.00138059 -0.00136047 -0.00113312 -0.000959668 -0.000807022 -0.000306625 -7.50795e-05 -3.15275e-05
285.5325 0.00025 -0.0158544 -0.0646114 -0.134673 -0.137249 -0.150197 -0.147955 -0.154683 -0.14525 -0.148878 -0.147495 -0.148057 -0.149827 -0.142356 -0.13581 -0.132452 -0.12823 -0.126163 -0.125105 -0.122997 -0.118516 -0.11164 -0.102561 -0.0975494 -0.0967235 -0.0960219 -0.0934882 -0.0942382 -0.0919929 -0.0905177 -0.0874366 -0.0829057 -0.0760412 -0.0702977 -0.0675494 -0.0651083 -0.0631055 -0.0630805 -0.060936 -0.0561573 -0.054241 -0.0549507 -0.0570278 -0.0551786 -0.0510194 -0.0496434 -0.0498553 -0.0511554 -0.0495524 -0.0483757 -0.0452736 -0.0417479 -0.038761 -0.0384616 -0.0404445 -0.0427254 -0.0409413 -0.0413043 -0.0398189 -0.0393786 -0.0380655 -0.0354687 -0.0315648 -0.0276748 -0.0244244 -0.0223832 -0.0197942 -0.0177218 -0.0164229 -0.0137776 -0.0106581 -0.00794468 -0.00619 -0.00516666 -0.00448875 -0.00429284 -0.00463262 -0.00479832 -0.00484461 -0.0047705 -0.00486713 -0.00482484 -0.00491128 -0.00502184 -0.00505929 -0.0050061 -0.00460549 -0.00375614 -0.00307136 -0.00260637 -0.00210746 -0.001785 -0.00151949 -0.00136271 -0.00134235 -0.00112505 -0.000958425 -0.000807658 -0.000308146 -7.32862e-05 -3.10849e-05
285.535 0.00025 -0.0158185 -0.064292 -0.133869 -0.136373 -0.149966 -0.148035 -0.154858 -0.145267 -0.148854 -0.147302 -0.147899 -0.149625 -0.142291 -0.136045 -0.132721 -0.128277 -0.126312 -0.125128 -0.122599 -0.118563 -0.111832 -0.102819 -0.097576 -0.0968365 -0.0957323 -0.0932595 -0.0947904 -0.0928814 -0.0915058 -0.088034 -0.0830489 -0.075849 -0.06984 -0.0670558 -0.0647738 -0.0629527 -0.0628643 -0.0609653 -0.0562234 -0.0540873 -0.0548509 -0.0571986 -0.0554659 -0.0510352 -0.0493764 -0.0498551 -0.0511017 -0.0492927 -0.0482623 -0.0454096 -0.0418812 -0.0385646 -0.0381321 -0.0402221 -0.04273 -0.0409308 -0.0413582 -0.0398469 -0.0393261 -0.0382051 -0.0355746 -0.0316212 -0.0277989 -0.0244945 -0.0223847 -0.0197913 -0.017687 -0.0164401 -0.0139058 -0.0107972 -0.00803759 -0.00625907 -0.00518061 -0.00443457 -0.00421582 -0.00458355 -0.00476459 -0.00480252 -0.00472643 -0.00483162 -0.00480973 -0.0049089 -0.00501815 -0.0050613 -0.00501327 -0.00461311 -0.00375802 -0.00307342 -0.0026128 -0.00210832 -0.0017804 -0.00151182 -0.00134521 -0.00132392 -0.0011167 -0.000957012 -0.000808387 -0.00030976 -7.15822e-05 -3.07009e-05
285.5375 0.00025 -0.0157975 -0.0640276 -0.133049 -0.135566 -0.149804 -0.148193 -0.154994 -0.145317 -0.148864 -0.147152 -0.147796 -0.149388 -0.142206 -0.13625 -0.132952 -0.128252 -0.126465 -0.12519 -0.122144 -0.118579 -0.112023 -0.103154 -0.0977012 -0.0969148 -0.0954583 -0.0931113 -0.095316 -0.0936964 -0.092427 -0.0885845 -0.0832143 -0.075741 -0.0694615 -0.0665636 -0.0644737 -0.0628222 -0.0626346 -0.0609564 -0.0562893 -0.0539737 -0.0547656 -0.0573348 -0.055755 -0.0510921 -0.0491453 -0.0498619 -0.0510456 -0.0490319 -0.0481369 -0.045525 -0.042021 -0.0383892 -0.0378281 -0.0399932 -0.0427097 -0.040923 -0.0414079 -0.0398813 -0.0392745 -0.0383316 -0.0356761 -0.031681 -0.0279275 -0.024575 -0.0223925 -0.0197946 -0.0176491 -0.0164454 -0.0140304 -0.0109419 -0.0081343 -0.00633089 -0.00519971 -0.00438566 -0.00413984 -0.00453264 -0.00473035 -0.00476164 -0.0046826 -0.00479597 -0.00479418 -0.00490553 -0.00501378 -0.00506312 -0.00502095 -0.00462152 -0.00375959 -0.0030748 -0.00261924 -0.0021098 -0.00177617 -0.00150477 -0.00132814 -0.00130525 -0.00110809 -0.000955341 -0.000808948 -0.000311453 -6.9929e-05 -3.02597e-05
285.54 0.00025 -0.0157967 -0.0638476 -0.132238 -0.134838 -0.149723 -0.148431 -0.155106 -0.145414 -0.148913 -0.147045 -0.147742 -0.149123 -0.142082 -0.136437 -0.133129 -0.128161 -0.126585 -0.12529 -0.121659 -0.118536 -0.112228 -0.103558 -0.0979194 -0.0969518 -0.0952141 -0.0930739 -0.0958415 -0.0944367 -0.0932552 -0.0890803 -0.0833996 -0.0757157 -0.0691694 -0.0660795 -0.0642027 -0.062716 -0.0623967 -0.0609161 -0.0563595 -0.0538997 -0.0546928 -0.0574272 -0.0560422 -0.0511914 -0.0489491 -0.0498722 -0.0509795 -0.0487692 -0.0480033 -0.0456181 -0.0421621 -0.0382369 -0.0375488 -0.0397609 -0.0426683 -0.0409162 -0.0414548 -0.0399247 -0.0392275 -0.0384448 -0.03577 -0.031745 -0.028059 -0.024664 -0.0224063 -0.0198038 -0.0176094 -0.0164391 -0.0141494 -0.0110926 -0.00823571 -0.00640451 -0.00522321 -0.00434198 -0.00406522 -0.00447954 -0.0046952 -0.00472195 -0.0046392 -0.00475984 -0.00477797 -0.00490114 -0.00500824 -0.00506401 -0.00502892 -0.00463099 -0.00376103 -0.00307552 -0.00262575 -0.00211184 -0.00177229 -0.00149823 -0.00131145 -0.00128637 -0.00109924 -0.000953494 -0.00080939 -0.00031318 -6.83712e-05 -2.978e-05
285.5425 0.00025 -0.0158024 -0.063722 -0.131458 -0.134186 -0.149686 -0.148708 -0.155202 -0.145559 -0.149032 -0.146992 -0.147726 -0.148847 -0.141926 -0.136631 -0.133261 -0.128014 -0.126664 -0.125424 -0.121184 -0.118405 -0.112432 -0.104032 -0.0982052 -0.0969453 -0.0950066 -0.0931435 -0.0963721 -0.0951064 -0.0939801 -0.0895169 -0.0836024 -0.0757729 -0.0689801 -0.0656257 -0.0639568 -0.0626302 -0.0621524 -0.0608436 -0.0564229 -0.0538658 -0.0546421 -0.0574627 -0.0563167 -0.0513354 -0.0487974 -0.0498857 -0.0509091 -0.0485111 -0.0478604 -0.0456893 -0.0423034 -0.0381062 -0.0372968 -0.0395265 -0.0426019 -0.0409113 -0.0414965 -0.0399747 -0.0391854 -0.0385427 -0.0358556 -0.0318128 -0.0281936 -0.0247616 -0.0224278 -0.0198201 -0.0175687 -0.0164209 -0.014262 -0.0112481 -0.00834146 -0.0064791 -0.00525098 -0.0043044 -0.0039925 -0.00442426 -0.00465897 -0.00468335 -0.00459626 -0.00472352 -0.00476141 -0.00489574 -0.00500157 -0.00506418 -0.00503701 -0.00464145 -0.00376258 -0.0030755 -0.00263205 -0.00211437 -0.00176879 -0.00149232 -0.00129525 -0.00126728 -0.00109011 -0.000951366 -0.000809761 -0.000315047 -6.70088e-05 -2.94007e-05
285.545 0.00025 -0.0158078 -0.0636501 -0.130725 -0.133621 -0.149695 -0.149015 -0.155258 -0.145765 -0.149205 -0.146991 -0.147759 -0.148542 -0.141734 -0.136849 -0.133349 -0.127822 -0.126675 -0.125563 -0.120756 -0.118192 -0.112638 -0.10457 -0.0985627 -0.0969303 -0.0948506 -0.0933167 -0.0969272 -0.0957052 -0.0945849 -0.0898894 -0.0838085 -0.0758918 -0.0689003 -0.0652168 -0.0637335 -0.0625621 -0.0619017 -0.0607528 -0.0564893 -0.0538692 -0.054608 -0.0574433 -0.0565802 -0.0515245 -0.048697 -0.0498969 -0.0508246 -0.0482592 -0.0477126 -0.0457346 -0.042443 -0.0380001 -0.0370722 -0.0392912 -0.0425111 -0.0409047 -0.0415306 -0.0400291 -0.03915 -0.0386274 -0.0359347 -0.0318846 -0.0283318 -0.0248665 -0.0224549 -0.0198436 -0.01753 -0.016392 -0.014367 -0.0114081 -0.00845309 -0.00655523 -0.00528209 -0.00427277 -0.00392244 -0.00436709 -0.00462118 -0.00464593 -0.00455408 -0.00468698 -0.00474428 -0.00488948 -0.0049938 -0.00506341 -0.00504506 -0.00465287 -0.00376443 -0.00307499 -0.00263831 -0.00211741 -0.00176558 -0.00148696 -0.00127953 -0.00124805 -0.00108085 -0.000949079 -0.000810061 -0.000316919 -6.56833e-05 -2.89432e-05
285.5475 0.00025 -0.0157986 -0.0636231 -0.13004 -0.13311 -0.149686 -0.14933 -0.155296 -0.146014 -0.149448 -0.147053 -0.147822 -0.14822 -0.141539 -0.137079 -0.13338 -0.127587 -0.126604 -0.125681 -0.120398 -0.117901 -0.112842 -0.105158 -0.0989835 -0.0969205 -0.0947452 -0.0935776 -0.0975066 -0.0962428 -0.0950698 -0.0901966 -0.084023 -0.076067 -0.0689291 -0.0648697 -0.0635232 -0.0625041 -0.0616415 -0.0606378 -0.0565539 -0.0539116 -0.0545966 -0.0573679 -0.0568245 -0.0517532 -0.0486458 -0.0499047 -0.0507279 -0.0480186 -0.0475611 -0.0457534 -0.0425746 -0.0379143 -0.0368783 -0.0390602 -0.0423969 -0.0408962 -0.04156 -0.0400883 -0.0391242 -0.0386981 -0.0360055 -0.031962 -0.0284728 -0.0249777 -0.0224915 -0.0198754 -0.0174938 -0.0163518 -0.0144631 -0.0115723 -0.00857114 -0.00663327 -0.00531664 -0.00424759 -0.00385527 -0.00430765 -0.00458198 -0.00460941 -0.00451225 -0.00465013 -0.00472706 -0.00488256 -0.00498485 -0.0050615 -0.00505283 -0.00466521 -0.00376681 -0.00307397 -0.00264427 -0.00212097 -0.00176273 -0.00148225 -0.00126435 -0.00122858 -0.00107121 -0.000946517 -0.000810206 -0.000318877 -6.44736e-05 -2.85064e-05
285.55 0.00025 -0.0157722 -0.0636344 -0.129423 -0.132698 -0.149644 -0.149659 -0.155334 -0.146294 -0.149777 -0.147164 -0.147926 -0.147891 -0.141348 -0.137319 -0.133391 -0.127341 -0.126461 -0.125752 -0.12012 -0.117551 -0.113034 -0.105768 -0.0994311 -0.0969197 -0.0947029 -0.0939159 -0.0981075 -0.096718 -0.095446 -0.0904422 -0.0842326 -0.0762859 -0.0690695 -0.0645988 -0.0633246 -0.062451 -0.0613798 -0.0605098 -0.0566268 -0.0539944 -0.0546032 -0.0572373 -0.0570411 -0.0520163 -0.0486495 -0.0499123 -0.0506143 -0.0477888 -0.0474053 -0.0457458 -0.0427005 -0.0378524 -0.0367121 -0.0388327 -0.0422617 -0.0408849 -0.0415815 -0.0401487 -0.0391067 -0.0387556 -0.0360683 -0.0320424 -0.0286176 -0.0250955 -0.0225354 -0.0199158 -0.017462 -0.0163011 -0.0145483 -0.0117389 -0.00869579 -0.00671271 -0.00535392 -0.00422888 -0.00379137 -0.00424603 -0.00454094 -0.0045737 -0.0044713 -0.00461336 -0.00470945 -0.00487475 -0.00497471 -0.00505839 -0.00506016 -0.00467837 -0.00376987 -0.00307253 -0.00264991 -0.00212498 -0.0017602 -0.00147802 -0.00124968 -0.00120906 -0.0010614 -0.000943767 -0.000810268 -0.00032091 -6.34333e-05 -2.8066e-05
285.5525 0.00025 -0.0157301 -0.0636451 -0.128883 -0.13237 -0.149549 -0.149967 -0.155365 -0.146593 -0.150196 -0.14732 -0.148094 -0.147581 -0.14117 -0.13755 -0.133374 -0.127064 -0.126217 -0.125737 -0.119934 -0.117187 -0.11322 -0.106401 -0.0999025 -0.096947 -0.0947489 -0.0943172 -0.0987161 -0.0971449 -0.0957219 -0.0906264 -0.0844435 -0.0765342 -0.0693067 -0.0644242 -0.0631339 -0.0624027 -0.0611113 -0.0603657 -0.056701 -0.0541113 -0.0546268 -0.0570574 -0.0572317 -0.0523142 -0.0487063 -0.0499166 -0.0504851 -0.047574 -0.0472454 -0.0457126 -0.0428171 -0.0378118 -0.0365769 -0.0386125 -0.0421049 -0.0408692 -0.0415965 -0.0402117 -0.0390996 -0.038799 -0.0361225 -0.0321253 -0.0287641 -0.0252187 -0.0225867 -0.0199651 -0.0174364 -0.0162432 -0.0146229 -0.0119072 -0.00882722 -0.00679329 -0.00539304 -0.00421653 -0.00373121 -0.00418265 -0.0044982 -0.00453866 -0.00443095 -0.00457649 -0.0046916 -0.00486647 -0.00496358 -0.00505404 -0.00506697 -0.00469227 -0.00377371 -0.00307074 -0.00265519 -0.00212947 -0.00175804 -0.00147436 -0.0012356 -0.00118947 -0.00105129 -0.00094065 -0.000810085 -0.000322984 -6.2659e-05 -2.77128e-05
285.555 0.00025 -0.0156752 -0.063662 -0.128394 -0.132124 -0.149388 -0.150226 -0.155408 -0.14693 -0.150744 -0.147509 -0.148304 -0.147267 -0.141031 -0.137783 -0.133335 -0.126791 -0.125892 -0.125643 -0.119817 -0.116842 -0.113395 -0.107015 -0.100393 -0.0970189 -0.0948993 -0.094765 -0.099322 -0.0975259 -0.0959088 -0.0907619 -0.084655 -0.0768067 -0.069636 -0.0643571 -0.0629538 -0.0623588 -0.0608491 -0.0602153 -0.0567779 -0.0542597 -0.0546663 -0.0568319 -0.057387 -0.0526449 -0.0488187 -0.0499257 -0.0503408 -0.047375 -0.0470824 -0.0456537 -0.0429204 -0.0377921 -0.0364727 -0.0383991 -0.0419274 -0.0408504 -0.0416055 -0.0402757 -0.0391001 -0.0388271 -0.0361699 -0.0322123 -0.0289124 -0.0253489 -0.0226473 -0.0200229 -0.0174191 -0.0161772 -0.014685 -0.0120757 -0.00896621 -0.00687625 -0.0054341 -0.0042104 -0.00367529 -0.0041173 -0.00445313 -0.00450413 -0.00439125 -0.00453959 -0.00467348 -0.00485758 -0.00495136 -0.00504831 -0.00507304 -0.00470668 -0.00377848 -0.0030688 -0.00266004 -0.00213423 -0.00175627 -0.00147123 -0.00122194 -0.00116969 -0.00104097 -0.000937246 -0.000809825 -0.000325193 -6.18607e-05 -2.72551e-05
285.5575 0.00025 -0.0156027 -0.063659 -0.127956 -0.13195 -0.149147 -0.150392 -0.155448 -0.147289 -0.151396 -0.147739 -0.148587 -0.146986 -0.140947 -0.138006 -0.133289 -0.126537 -0.125486 -0.125437 -0.11973 -0.116538 -0.113567 -0.107604 -0.100894 -0.0971411 -0.095169 -0.0952427 -0.0998948 -0.0978715 -0.0960271 -0.0908466 -0.0848634 -0.0770877 -0.0700508 -0.0644028 -0.0627839 -0.0623142 -0.0605883 -0.0600611 -0.056868 -0.0544377 -0.0547119 -0.0565701 -0.0575063 -0.052997 -0.0489812 -0.0499345 -0.0501818 -0.0471912 -0.0469191 -0.0455684 -0.0430095 -0.0377929 -0.0364003 -0.0381973 -0.0417325 -0.0408261 -0.0416093 -0.0403402 -0.0391098 -0.038842 -0.0362103 -0.0323017 -0.0290588 -0.0254824 -0.0227149 -0.0200896 -0.0174087 -0.0161057 -0.0147353 -0.0122428 -0.00911227 -0.00696224 -0.00547645 -0.00421053 -0.00362433 -0.00405076 -0.00440599 -0.00447014 -0.0043525 -0.00450293 -0.00465521 -0.00484827 -0.00493827 -0.00504114 -0.00507815 -0.00472162 -0.00378439 -0.00306671 -0.00266434 -0.0021394 -0.00175478 -0.00146867 -0.00120907 -0.00114998 -0.00103041 -0.000933709 -0.000809433 -0.000327284 -6.11132e-05 -2.68483e-05
285.56 0.00025 -0.0155121 -0.0636355 -0.127551 -0.131849 -0.148862 -0.150473 -0.155473 -0.147662 -0.152176 -0.148022 -0.148914 -0.146773 -0.140945 -0.138231 -0.133232 -0.126297 -0.125002 -0.125151 -0.119654 -0.116286 -0.113756 -0.108158 -0.101412 -0.0973239 -0.0955683 -0.0957373 -0.100414 -0.0981962 -0.0960987 -0.0908915 -0.0850643 -0.0773694 -0.0705333 -0.0645663 -0.0626289 -0.062268 -0.060335 -0.0599083 -0.0569671 -0.0546469 -0.0547712 -0.0562819 -0.0575868 -0.0533626 -0.0491913 -0.0499452 -0.050007 -0.0470274 -0.0467564 -0.0454609 -0.0430844 -0.0378125 -0.0363573 -0.0380035 -0.0415205 -0.0407952 -0.0416042 -0.0404038 -0.0391281 -0.0388428 -0.0362443 -0.0323965 -0.0292068 -0.0256219 -0.0227913 -0.0201649 -0.0174084 -0.0160294 -0.0147719 -0.0124081 -0.00926562 -0.00705146 -0.00552007 -0.00421704 -0.00357835 -0.00398269 -0.00435624 -0.00443627 -0.00431445 -0.00446631 -0.00463673 -0.0048386 -0.00492442 -0.00503256 -0.00508212 -0.00473685 -0.00379138 -0.00306468 -0.00266816 -0.00214486 -0.00175356 -0.00146662 -0.00119677 -0.00113025 -0.00101962 -0.000929852 -0.000808849 -0.000329481 -6.06093e-05 -2.64617e-05
285.5625 0.00025 -0.0154169 -0.0635862 -0.127194 -0.131811 -0.148478 -0.150424 -0.155472 -0.148048 -0.153066 -0.148381 -0.149277 -0.146619 -0.141005 -0.138464 -0.133172 -0.126084 -0.124453 -0.124776 -0.119557 -0.11609 -0.113975 -0.108679 -0.10194 -0.0975535 -0.0961063 -0.0962365 -0.100855 -0.0985078 -0.0961498 -0.0909124 -0.0852607 -0.0776502 -0.0710769 -0.0648444 -0.0624942 -0.0622184 -0.0600824 -0.0597536 -0.0570767 -0.054874 -0.0548342 -0.055976 -0.0576269 -0.0537383 -0.04945 -0.0499653 -0.049821 -0.0468799 -0.0465942 -0.0453295 -0.0431404 -0.0378481 -0.0363453 -0.0378247 -0.0412958 -0.040755 -0.0415911 -0.0404653 -0.0391539 -0.0388328 -0.0362734 -0.0324934 -0.0293524 -0.0257659 -0.0228755 -0.0202485 -0.0174183 -0.0159504 -0.0147945 -0.012569 -0.00942607 -0.00714466 -0.00556435 -0.00422882 -0.00353817 -0.00391414 -0.004304 -0.00440262 -0.00427717 -0.00443001 -0.00461793 -0.00482843 -0.00490967 -0.00502247 -0.00508489 -0.00475213 -0.00379955 -0.00306292 -0.00267143 -0.00215056 -0.00175265 -0.00146507 -0.00118518 -0.00111062 -0.00100857 -0.000925703 -0.000808155 -0.000331732 -6.0123e-05 -2.60361e-05
285.565 0.00025 -0.0153246 -0.0635066 -0.12686 -0.131818 -0.147996 -0.150237 -0.155436 -0.148448 -0.154046 -0.148839 -0.149651 -0.146546 -0.141127 -0.138693 -0.133095 -0.1259 -0.123864 -0.124337 -0.11941 -0.115928 -0.114253 -0.109174 -0.102479 -0.0978433 -0.0967916 -0.0967388 -0.101193 -0.0988096 -0.0962069 -0.0909183 -0.0854471 -0.0779279 -0.0716686 -0.0652231 -0.062387 -0.0621669 -0.0598447 -0.0596098 -0.0572052 -0.0551252 -0.0548986 -0.055659 -0.0576255 -0.0541126 -0.0497516 -0.0499941 -0.0496247 -0.0467491 -0.0464342 -0.0451812 -0.0431774 -0.0379022 -0.0363637 -0.0376597 -0.0410604 -0.0407067 -0.0415737 -0.040528 -0.0391844 -0.0388093 -0.0362971 -0.0325944 -0.0294956 -0.0259123 -0.0229692 -0.0203412 -0.0174394 -0.0158716 -0.0148039 -0.0127246 -0.00959254 -0.00724246 -0.00560964 -0.00424612 -0.00350382 -0.00384511 -0.00424923 -0.00436879 -0.00424086 -0.00439416 -0.00459893 -0.004818 -0.0048944 -0.00501105 -0.00508624 -0.00476736 -0.00380906 -0.00306162 -0.0026741 -0.00215648 -0.00175204 -0.00146396 -0.0011743 -0.00109103 -0.000997286 -0.00092126 -0.000807244 -0.000333975 -5.97542e-05 -2.56273e-05