285.5025 0.00025 0.0043819 0.000308622 -0.0119099 -0.0243515 -0.0462986 -0.0576957 -0.0478222 -0.0264589 -0.0198934 -0.0358195 -0.0567581 -0.0599469 -0.0612632 -0.0665784 -0.0551276 -0.0388754 -0.0452691 -0.0475059 -0.0396917 -0.0337814 -0.0326033 -0.0387156 -0.0430328 -0.0403416 -0.0363738 -0.0338035 -0.0212421 -0.0212258 -0.0322601 -0.0326411 -0.0344609 -0.0308483 -0.0216029 -0.018069 -0.0116492 -0.00576595 -0.00316789 -0.00350507 -0.00671588 -0.0132811 -0.0274626 -0.0327491 -0.0361027 -0.0357805 -0.0342585 -0.0320508 -0.0263395 -0.0211027 -0.0126233 -0.00883195 -0.00482393 0.00226263 0.0083619 0.0129481 0.0156133 0.0230696 0.0229657 0.0173535 0.0134999 0.00474943 0.000609877 -0.000456648 -0.00293421 -0.00872091 -0.0131792 -0.0118103 -0.00995175 -0.00732091 -0.000952418 0.00607659 0.00687861 0.00243686 -0.00186019 -0.00598333 -0.00967183 -0.0135044 -0.0140998 -0.0143845 -0.0174915 -0.0207648 -0.0239373 -0.0284615 -0.0311656 -0.0328869 -0.0374491 -0.0448408 -0.0507144 -0.0540728 -0.0561398 -0.0554083 -0.0531825 -0.0506359 -0.0478311 -0.0456152 -0.0422056 -0.0402204 -0.0377222 -0.0365284 -0.0414197 -0.0448526
285.505 0.00025 0.00396293 -0.000353927 -0.0126229 -0.0240275 -0.0456871 -0.057981 -0.048529 -0.0264216 -0.0190061 -0.0345826 -0.0555266 -0.0592738 -0.0611604 -0.0674782 -0.0568026 -0.040215 -0.0460392 -0.0481356 -0.0403344 -0.0334179 -0.0310688 -0.0371174 -0.0416685 -0.0390405 -0.0355242 -0.0333882 -0.0206372 -0.0205334 -0.0317442 -0.0323299 -0.034436 -0.0315174 -0.0223932 -0.0185983 -0.0123047 -0.00637431 -0.0034548 -0.00348013 -0.00646329 -0.0133776 -0.0283803 -0.0338801 -0.0366462 -0.0357938 -0.0342155 -0.0321651 -0.0267658 -0.0215041 -0.0129483 -0.00904649 -0.00475755 0.00262113 0.0087136 0.0128999 0.0153573 0.0228944 0.0229346 0.0172831 0.0135935 0.00494438 0.00058747 -0.000465217 -0.00248704 -0.00807823 -0.012861 -0.0117845 -0.00994337 -0.00723586 -0.000824123 0.0062056 0.00693257 0.00250215 -0.00170959 -0.00583079 -0.00963395 -0.0136194 -0.0142567 -0.0144753 -0.0175711 -0.0209201 -0.024162 -0.0287017 -0.0314008 -0.0330637 -0.0374765 -0.0447539 -0.050637 -0.0540259 -0.056044 -0.0552826 -0.0530968 -0.0506034 -0.0478265 -0.0456424 -0.0422719 -0.0403005 -0.0378034 -0.0365698 -0.0414249 -0.0448696
285.5075 0.00025 0.0035377 -0.00101562 -0.0133236 -0.0237187 -0.0450064 -0.0581694 -0.04916 -0.0264026 -0.0182294 -0.033467 -0.0543217 -0.0585542 -0.0609918 -0.0683362 -0.0585453 -0.0416191 -0.0467516 -0.0486981 -0.0410194 -0.0331369 -0.0295584 -0.0355192 -0.040295 -0.0377169 -0.0346503 -0.032976 -0.0200714 -0.0198325 -0.0311804 -0.0320233 -0.034447 -0.0321933 -0.0231815 -0.0191207 -0.0129499 -0.00697252 -0.00375029 -0.00344275 -0.00620366 -0.0134827 -0.029251 -0.0349948 -0.0372345 -0.0358243 -0.0341728 -0.0322932 -0.0271928 -0.0219094 -0.0132856 -0.00927347 -0.00467784 0.00301112 0.00908731 0.0128755 0.0151136 0.0226934 0.0228801 0.0171987 0.0136695 0.0051451 0.000575319 -0.000500752 -0.00207365 -0.00742779 -0.0125148 -0.0117408 -0.00992555 -0.0071484 -0.000697883 0.0063311 0.00698497 0.00256815 -0.00156174 -0.00568117 -0.00959081 -0.0137264 -0.0144146 -0.0145718 -0.0176529 -0.0210743 -0.024382 -0.0289376 -0.0316377 -0.0332479 -0.0375108 -0.0446666 -0.0505557 -0.0539775 -0.0559479 -0.0551552 -0.0530093 -0.0505705 -0.0478231 -0.0456706 -0.0423379 -0.0403801 -0.0378851 -0.0366122 -0.0414305 -0.0448866
285.51 0.00025 0.00310525 -0.00167095 -0.0140045 -0.0234303 -0.0442689 -0.0582698 -0.0497029 -0.0263843 -0.0175617 -0.0324647 -0.0531594 -0.0578184 -0.0607621 -0.0691433 -0.0603388 -0.0430842 -0.0474163 -0.0491889 -0.0417285 -0.0329324 -0.0280959 -0.0339391 -0.0389136 -0.0363691 -0.0337398 -0.0325584 -0.0195541 -0.0191249 -0.030564 -0.0317201 -0.0344989 -0.0328721 -0.0239584 -0.0196393 -0.0135882 -0.00755839 -0.00405079 -0.00339567 -0.0059463 -0.0135996 -0.0300674 -0.0360861 -0.0378659 -0.0358749 -0.0341345 -0.0324383 -0.0276195 -0.0223158 -0.0136339 -0.00951079 -0.00458497 0.00342989 0.00947998 0.0128738 0.0148858 0.0224707 0.0228015 0.0171001 0.0137264 0.00534866 0.00057566 -0.000559278 -0.00169576 -0.00677416 -0.0121415 -0.0116776 -0.00989706 -0.00705829 -0.000574084 0.00645276 0.00703614 0.00263556 -0.00141635 -0.00553494 -0.0095431 -0.0138253 -0.0145728 -0.014674 -0.0177371 -0.0212276 -0.0245975 -0.0291691 -0.0318756 -0.0334393 -0.0375524 -0.0445793 -0.0504704 -0.0539276 -0.0558514 -0.0550262 -0.05292 -0.0505371 -0.0478208 -0.0456996 -0.0424038 -0.0404591 -0.0379673 -0.0366556 -0.0414363 -0.0449035
285.5125 0.00025 0.00266541 -0.00231495 -0.0146596 -0.0231658 -0.043489 -0.0582931 -0.0501452 -0.0263472 -0.0170013 -0.0315711 -0.0520486 -0.0570932 -0.060482 -0.0698913 -0.0621611 -0.0446042 -0.048048 -0.0496079 -0.0424416 -0.0327942 -0.0267046 -0.0323957 -0.0375254 -0.0349975 -0.032782 -0.0321238 -0.0190943 -0.0184147 -0.0298912 -0.0314191 -0.0345946 -0.033551 -0.0247158 -0.0201576 -0.0142219 -0.00812849 -0.00435271 -0.00334348 -0.00570039 -0.0137306 -0.030823 -0.0371476 -0.0385378 -0.0359474 -0.0341045 -0.0326032 -0.0280448 -0.0227214 -0.0139917 -0.00975608 -0.00447912 0.00387468 0.00988836 0.0128934 0.0146772 0.022231 0.0226986 0.0169873 0.0137627 0.005552 0.000590095 -0.000636433 -0.00135446 -0.00612189 -0.0117421 -0.0115932 -0.00985676 -0.00696521 -0.000452902 0.00657033 0.00708633 0.00270502 -0.00127312 -0.00539252 -0.0094915 -0.0139162 -0.014731 -0.0147817 -0.0178241 -0.0213806 -0.0248088 -0.0293958 -0.0321141 -0.0336373 -0.0376013 -0.0444927 -0.0503814 -0.0538757 -0.0557546 -0.0548959 -0.052829 -0.0505031 -0.0478195 -0.0457296 -0.0424694 -0.0405375 -0.0380501 -0.0366999 -0.0414424 -0.0449204
285.515 0.00025 0.00221867 -0.00294608 -0.0152818 -0.0229294 -0.042679 -0.0582506 -0.0504785 -0.0262723 -0.0165427 -0.030785 -0.0509963 -0.0563971 -0.0601686 -0.0705754 -0.0639873 -0.04617 -0.0486637 -0.0499589 -0.0431385 -0.0327099 -0.0254055 -0.0309079 -0.036132 -0.0336033 -0.0317674 -0.0316591 -0.0186993 -0.017708 -0.0291595 -0.0311174 -0.0347354 -0.0342274 -0.0254477 -0.0206785 -0.014853 -0.00867898 -0.00465287 -0.00329117 -0.00547458 -0.0138775 -0.0315125 -0.038173 -0.0392458 -0.0360438 -0.0340879 -0.0327902 -0.0284677 -0.0231247 -0.0143581 -0.0100068 -0.00436039 0.00434245 0.0103094 0.0129328 0.0144908 0.021979 0.0225713 0.0168599 0.0137771 0.00575161 0.000619747 -0.000727756 -0.00105016 -0.0054755 -0.0113181 -0.0114863 -0.00980355 -0.00686872 -0.000334526 0.00668351 0.00713575 0.00277709 -0.00113169 -0.0052542 -0.00943673 -0.013999 -0.0148885 -0.0148948 -0.0179139 -0.0215334 -0.0250161 -0.0296175 -0.0323526 -0.0338415 -0.0376578 -0.0444072 -0.0502887 -0.0538218 -0.0556574 -0.0547642 -0.0527362 -0.0504684 -0.0478191 -0.0457606 -0.0425349 -0.0406154 -0.0381333 -0.0367451 -0.0414488 -0.0449372
285.5175 0.00025 0.00176487 -0.00355857 -0.0158653 -0.0227259 -0.0418497 -0.0581513 -0.0506999 -0.0261439 -0.0161777 -0.0301082 -0.0500082 -0.0557399 -0.0598422 -0.0711945 -0.06579 -0.0477702 -0.0492815 -0.0502486 -0.0438005 -0.0326652 -0.0242157 -0.0294954 -0.0347362 -0.0321869 -0.0306884 -0.0311513 -0.0183741 -0.0170125 -0.0283686 -0.0308109 -0.0349207 -0.0349001 -0.0261494 -0.0212046 -0.0154824 -0.00920546 -0.00494848 -0.00324443 -0.00527705 -0.0140413 -0.0321318 -0.0391571 -0.0399849 -0.0361654 -0.0340902 -0.0330012 -0.028887 -0.0235238 -0.014732 -0.01026 -0.00422869 0.0048301 0.0107401 0.01299 0.0143292 0.0217196 0.0224199 0.0167175 0.013769 0.00594417 0.00066481 -0.000828774 -0.000782591 -0.00483899 -0.0108713 -0.0113558 -0.00973643 -0.00676843 -0.00021898 0.00679208 0.00718454 0.0028523 -0.000991681 -0.00512017 -0.00937945 -0.014074 -0.015045 -0.015013 -0.0180068 -0.0216865 -0.0252198 -0.0298342 -0.0325906 -0.0340516 -0.037722 -0.0443235 -0.0501925 -0.0537655 -0.0555597 -0.0546315 -0.0526418 -0.050433 -0.0478196 -0.0457926 -0.0426003 -0.0406927 -0.0382169 -0.0367912 -0.0414555 -0.044954
285.52 0.00025 0.0013063 -0.00414804 -0.016411 -0.0225595 -0.0410087 -0.0579996 -0.0508126 -0.0259479 -0.0158959 -0.0295424 -0.0490901 -0.055123 -0.0595231 -0.0717521 -0.0675427 -0.0493937 -0.0499188 -0.0504852 -0.0444116 -0.0326458 -0.0231463 -0.0281776 -0.0333433 -0.0307473 -0.0295401 -0.0305893 -0.0181186 -0.0163377 -0.0275208 -0.0304946 -0.0351478 -0.0355688 -0.0268184 -0.0217372 -0.0161108 -0.00970381 -0.0052369 -0.00321003 -0.00511505 -0.0142221 -0.0326781 -0.0400948 -0.040749 -0.0363131 -0.0341176 -0.0332377 -0.0293017 -0.0239178 -0.0151123 -0.0105129 -0.00408421 0.00533468 0.0111778 0.0130631 0.0141945 0.0214577 0.0222447 0.0165596 0.0137375 0.00612629 0.000725064 -0.000935147 -0.000550777 -0.00421617 -0.0104037 -0.0112005 -0.00965442 -0.00666395 -0.000106309 0.00689581 0.00723284 0.00293115 -0.000852698 -0.00499051 -0.0093203 -0.0141413 -0.0152002 -0.0151363 -0.018103 -0.02184 -0.0254202 -0.0300457 -0.0328277 -0.0342669 -0.037794 -0.044242 -0.0500931 -0.0537067 -0.0554614 -0.0544978 -0.0525458 -0.0503967 -0.0478209 -0.0458256 -0.0426657 -0.0407694 -0.0383009 -0.0368382 -0.0414625 -0.0449708
285.5225 0.00025 0.000845731 -0.00470845 -0.0169247 -0.0224361 -0.0401598 -0.0577958 -0.0508234 -0.0256758 -0.0156844 -0.0290891 -0.04825 -0.0545433 -0.0592272 -0.0722551 -0.0692214 -0.0510291 -0.05059 -0.0506771 -0.0449606 -0.0326369 -0.0222035 -0.0269723 -0.0319618 -0.0292825 -0.0283195 -0.0299646 -0.0179293 -0.0156928 -0.0266204 -0.0301631 -0.0354121 -0.0362332 -0.0274548 -0.0222766 -0.0167383 -0.0101699 -0.00551621 -0.00319446 -0.00499476 -0.0144192 -0.0331499 -0.0409818 -0.0415315 -0.0364875 -0.0341763 -0.0335009 -0.0297104 -0.024306 -0.0154978 -0.0107628 -0.00392704 0.00585328 0.0116197 0.0131499 0.0140886 0.0211982 0.0220467 0.0163861 0.0136819 0.00629469 0.000799621 -0.00104276 -0.00035313 -0.00361042 -0.00991749 -0.0110199 -0.00955667 -0.00655475 3.65828e-06 0.00699448 0.00728075 0.00301407 -0.000714351 -0.00486523 -0.00925996 -0.0142015 -0.0153535 -0.0152643 -0.0182024 -0.0219943 -0.0256176 -0.0302521 -0.0330633 -0.0344871 -0.0378737 -0.0441632 -0.0499905 -0.0536452 -0.0553626 -0.0543633 -0.0524484 -0.0503594 -0.0478229 -0.0458597 -0.0427309 -0.0408455 -0.0383853 -0.036886 -0.0414698 -0.0449875
285.525 0.00025 0.000385908 -0.00523793 -0.017408 -0.0223625 -0.0393041 -0.0575379 -0.050741 -0.0253268 -0.0155269 -0.0287452 -0.0474967 -0.0539969 -0.0589667 -0.0727122 -0.0708045 -0.0526663 -0.0513071 -0.0508312 -0.0454396 -0.0326277 -0.0213869 -0.0258955 -0.0306019 -0.0277901 -0.0270252 -0.0292719 -0.0177984 -0.0150865 -0.0256745 -0.0298116 -0.0357067 -0.0368939 -0.0280606 -0.0228219 -0.0173632 -0.0106005 -0.00578543 -0.00320408 -0.00492159 -0.0146319 -0.0335472 -0.0418143 -0.0423247 -0.0366885 -0.0342723 -0.033792 -0.0301121 -0.0246877 -0.015887 -0.0110073 -0.00375706 0.00638293 0.0120635 0.0132481 0.0140129 0.0209457 0.0218272 0.0161965 0.013602 0.00644605 0.000887041 -0.0011478 -0.000187709 -0.00302469 -0.00941518 -0.0108133 -0.00944239 -0.00644041 0.000111075 0.00708798 0.00732829 0.00310138 -0.000576226 -0.00474421 -0.00919898 -0.0142548 -0.0155049 -0.0153966 -0.0183052 -0.0221496 -0.0258124 -0.0304534 -0.033297 -0.0347114 -0.0379611 -0.0440877 -0.0498851 -0.0535808 -0.0552629 -0.054228 -0.0523495 -0.0503211 -0.0478256 -0.0458948 -0.0427962 -0.040921 -0.03847 -0.0369347 -0.0414774 -0.0450042
285.5275 0.00025 -6.9105e-05 -0.00573429 -0.017865 -0.0223467 -0.0384421 -0.0572211 -0.0505743 -0.0249062 -0.0154076 -0.0285062 -0.0468387 -0.0534805 -0.0587489 -0.0731306 -0.0722753 -0.0542968 -0.0520799 -0.050952 -0.0458448 -0.0326101 -0.0206911 -0.0249589 -0.0292758 -0.0262679 -0.0256577 -0.0285091 -0.0177153 -0.0145254 -0.024692 -0.0294363 -0.0360234 -0.0375512 -0.0286397 -0.023371 -0.0179831 -0.0109935 -0.00604436 -0.00324494 -0.00489961 -0.0148587 -0.033871 -0.0425893 -0.0431209 -0.0369157 -0.0344117 -0.0341118 -0.0305056 -0.0250626 -0.0162792 -0.0112437 -0.00357401 0.00692064 0.0125068 0.0133558 0.0139683 0.0207047 0.0215875 0.0159908 0.0134978 0.00657724 0.000985359 -0.0012468 -5.20797e-05 -0.00246145 -0.00889925 -0.0105807 -0.00931078 -0.00632046 0.000216151 0.00717629 0.00737548 0.00319329 -0.000437899 -0.00462726 -0.00913791 -0.0143017 -0.0156539 -0.0155331 -0.0184114 -0.022306 -0.0260049 -0.0306497 -0.0335285 -0.0349394 -0.0380562 -0.044016 -0.0497772 -0.0535134 -0.0551625 -0.0540922 -0.0522494 -0.0502817 -0.0478287 -0.045931 -0.0428616 -0.0409959 -0.038555 -0.0369842 -0.0414854 -0.0450208
285.53 0.00025 -0.000515016 -0.00619422 -0.0183039 -0.0223941 -0.0375748 -0.056838 -0.050332 -0.0244261 -0.0153073 -0.0283637 -0.0462842 -0.0529936 -0.0585783 -0.0735145 -0.073621 -0.0559164 -0.0529143 -0.0510418 -0.0461763 -0.0325788 -0.0201077 -0.0241692 -0.0279971 -0.0247144 -0.0242192 -0.0276772 -0.0176665 -0.0140136 -0.0236842 -0.0290348 -0.0363526 -0.0382046 -0.0291976 -0.0239219 -0.0185948 -0.0113481 -0.00629333 -0.0033218 -0.00493212 -0.0150984 -0.0341237 -0.0433041 -0.0439122 -0.0371683 -0.0345996 -0.034461 -0.0308897 -0.0254311 -0.0166732 -0.0114695 -0.00337765 0.00746383 0.0129475 0.0134707 0.0139554 0.0204792 0.0213295 0.0157689 0.0133693 0.00668555 0.00109224 -0.0013369 5.65302e-05 -0.00192267 -0.00837225 -0.0103221 -0.00916116 -0.00619449 0.000319193 0.00725935 0.00742233 0.00328998 -0.000298952 -0.00451412 -0.00907721 -0.0143429 -0.0158004 -0.0156732 -0.0185211 -0.0224638 -0.0261955 -0.0308411 -0.0337572 -0.0351706 -0.0381588 -0.0439484 -0.049667 -0.0534428 -0.0550612 -0.0539558 -0.0521479 -0.0502411 -0.0478323 -0.0459683 -0.0429269 -0.0410702 -0.0386403 -0.0370345 -0.0414936 -0.0450374
285.5325 0.00025 -0.000944244 -0.00661487 -0.0187359 -0.0225079 -0.0367048 -0.0563815 -0.0500201 -0.0239024 -0.0152094 -0.0283073 -0.0458404 -0.0525384 -0.0584565 -0.0738653 -0.074832 -0.0575224 -0.0538138 -0.0511015 -0.0464356 -0.0325326 -0.0196262 -0.023528 -0.0267782 -0.0231302 -0.0227142 -0.0267799 -0.0176383 -0.0135512 -0.0226627 -0.028607 -0.0366847 -0.0388532 -0.0297403 -0.0244716 -0.0191944 -0.0116644 -0.00653325 -0.0034384 -0.00502124 -0.0153501 -0.0343087 -0.0439565 -0.0446906 -0.0374449 -0.0348409 -0.0348401 -0.0312632 -0.0257933 -0.0170685 -0.0116826 -0.00316779 0.00800991 0.0133836 0.0135911 0.0139743 0.0202725 0.0210553 0.015531 0.0132164 0.00676856 0.00120497 -0.00141567 0.000141115 -0.00140973 -0.00783678 -0.0100377 -0.00899286 -0.0060622 0.000420544 0.00733719 0.0074688 0.00339157 -0.00015897 -0.00440442 -0.00901726 -0.0143789 -0.0159444 -0.0158167 -0.0186341 -0.022623 -0.0263844 -0.0310279 -0.033983 -0.0354042 -0.0382687 -0.0438855 -0.0495548 -0.0533689 -0.0549589 -0.0538191 -0.0520453 -0.0501993 -0.0478362 -0.0460067 -0.0429925 -0.041144 -0.0387257 -0.0370855 -0.0415022 -0.045054
285.535 0.00025 -0.00135438 -0.00699716 -0.0191657 -0.0226862 -0.0358379 -0.0558419 -0.0496426 -0.0233541 -0.0151014 -0.0283234 -0.0455123 -0.0521191 -0.0583863 -0.0741809 -0.0759023 -0.0591138 -0.0547786 -0.0511304 -0.0466252 -0.0324726 -0.0192379 -0.0230315 -0.0256279 -0.02152 -0.0211502 -0.0258218 -0.0176164 -0.013135 -0.0216392 -0.0281549 -0.0370104 -0.0394947 -0.0302745 -0.0250171 -0.0197769 -0.0119444 -0.00676567 -0.00359697 -0.0051683 -0.0156135 -0.0344305 -0.0445449 -0.045448 -0.037744 -0.0351393 -0.0352502 -0.0316254 -0.0261493 -0.0174644 -0.0118812 -0.00294419 0.00855667 0.0138133 0.013715 0.0140249 0.0200879 0.0207676 0.0152776 0.0130393 0.00682393 0.00132057 -0.0014813 0.000204916 -0.000923443 -0.00729532 -0.00972822 -0.00880532 -0.00592315 0.000520495 0.00741 0.00751488 0.00349805 -1.76285e-05 -0.00429774 -0.00895837 -0.0144103 -0.0160858 -0.0159632 -0.0187505 -0.0227837 -0.0265721 -0.0312103 -0.0342054 -0.0356397 -0.0383858 -0.0438276 -0.0494411 -0.0532918 -0.0548555 -0.0536821 -0.0519416 -0.0501561 -0.0478403 -0.0460463 -0.0430581 -0.0412171 -0.0388114 -0.0371373 -0.0415111 -0.0450706
285.5375 0.00025 -0.00174285 -0.00734135 -0.019599 -0.0229296 -0.0349782 -0.0552098 -0.0491981 -0.0228015 -0.0149775 -0.0283964 -0.0453031 -0.0517408 -0.0583693 -0.0744589 -0.0768267 -0.0606909 -0.055807 -0.051128 -0.0467485 -0.032401 -0.0189366 -0.0226707 -0.0245499 -0.0198914 -0.0195377 -0.0248087 -0.0175865 -0.0127589 -0.0206252 -0.0276825 -0.0373211 -0.0401261 -0.0308056 -0.0255555 -0.0203378 -0.0121908 -0.00699267 -0.00379865 -0.00537344 -0.0158885 -0.0344945 -0.0450673 -0.0461769 -0.0380639 -0.0354977 -0.035692 -0.0319754 -0.0264994 -0.0178602 -0.0120638 -0.00270652 0.00910209 0.0142349 0.013841 0.0141065 0.0199275 0.020469 0.0150094 0.0128383 0.00684981 0.00143583 -0.00153241 0.000251168 -0.000464115 -0.00675027 -0.00939467 -0.008598 -0.00577696 0.000619474 0.00747788 0.00756058 0.00360938 0.000125408 -0.00419362 -0.00890077 -0.0144378 -0.0162245 -0.0161123 -0.0188702 -0.0229461 -0.0267587 -0.0313885 -0.0344243 -0.0358766 -0.0385099 -0.0437752 -0.0493261 -0.0532112 -0.0547509 -0.0535449 -0.0518368 -0.0501115 -0.0478447 -0.0460869 -0.043124 -0.0412897 -0.0388972 -0.0371898 -0.0415203 -0.0450871
285.54 0.00025 -0.00210392 -0.00765237 -0.0200407 -0.0232332 -0.0341339 -0.0544802 -0.0486784 -0.0222638 -0.0148374 -0.0285097 -0.045215 -0.0514083 -0.0584076 -0.0746961 -0.0776012 -0.0622546 -0.0568958 -0.0510937 -0.0468086 -0.0323224 -0.0187184 -0.0224329 -0.023542 -0.0182557 -0.0178911 -0.023747 -0.0175349 -0.0124135 -0.0196307 -0.0271957 -0.0376098 -0.040744 -0.0313386 -0.0260841 -0.0208721 -0.0124072 -0.00721669 -0.0040435 -0.00563601 -0.0161762 -0.0345065 -0.0455222 -0.0468702 -0.0384029 -0.0359179 -0.0361661 -0.0323128 -0.0268439 -0.0182557 -0.0122292 -0.00245436 0.00964428 0.0146467 0.0139681 0.0142183 0.0197929 0.0201625 0.0147271 0.0126134 0.00684488 0.00154756 -0.00156839 0.00028304 -3.15843e-05 -0.00620383 -0.00903812 -0.00837051 -0.00562328 0.000717856 0.00754108 0.0076059 0.00372542 0.000270446 -0.00409151 -0.00884463 -0.0144621 -0.0163607 -0.0162637 -0.018993 -0.0231102 -0.0269446 -0.0315629 -0.0346395 -0.0361142 -0.0386406 -0.0437284 -0.0492101 -0.0531272 -0.054645 -0.0534075 -0.0517312 -0.0500655 -0.0478491 -0.0461287 -0.04319 -0.0413617 -0.0389832 -0.0372431 -0.0415299 -0.0451037
285.5425 0.00025 -0.00243336 -0.00793516 -0.0204942 -0.0235904 -0.0333134 -0.0536504 -0.0480738 -0.0217591 -0.0146854 -0.0286453 -0.0452485 -0.0511274 -0.0585005 -0.074891 -0.0782247 -0.0638042 -0.0580391 -0.0510288 -0.0468086 -0.0322414 -0.0185822 -0.0223042 -0.0225966 -0.0166254 -0.0162279 -0.0226428 -0.0174484 -0.0120879 -0.018665 -0.0267008 -0.0378707 -0.0413446 -0.0318769 -0.0266007 -0.021376 -0.0125983 -0.00744012 -0.00433025 -0.005954 -0.0164779 -0.0344728 -0.0459088 -0.0475213 -0.0387588 -0.0364007 -0.0366738 -0.0326375 -0.0271827 -0.0186504 -0.0123768 -0.00218745 0.0101817 0.0150472 0.0140957 0.0143593 0.0196851 0.0198514 0.014432 0.0123649 0.00680794 0.00165261 -0.00158904 0.000303731 0.000374652 -0.00565807 -0.00865992 -0.00812253 -0.00546173 0.000815938 0.0075999 0.00765089 0.00384594 0.00041773 -0.00399083 -0.00879003 -0.0144838 -0.0164944 -0.0164172 -0.0191189 -0.0232761 -0.0271299 -0.0317337 -0.0348507 -0.0363521 -0.0387775 -0.0436877 -0.0490937 -0.0530397 -0.0545378 -0.05327 -0.0516246 -0.050018 -0.0478535 -0.0461716 -0.0432564 -0.0414332 -0.0390692 -0.037297 -0.0415397 -0.0451202
285.545 0.00025 -0.00273105 -0.00819222 -0.0209624 -0.0239943 -0.0325237 -0.052719 -0.0473774 -0.0212992 -0.0145301 -0.0287859 -0.0454013 -0.0509048 -0.0586451 -0.0750436 -0.0786964 -0.0653373 -0.0592321 -0.0509352 -0.0467519 -0.0321617 -0.0185291 -0.0222703 -0.0217014 -0.0150136 -0.0145694 -0.0215039 -0.0173141 -0.0117701 -0.0177354 -0.0262042 -0.0381008 -0.0419238 -0.0324216 -0.0271037 -0.0218451 -0.0127695 -0.00766545 -0.00465678 -0.00632468 -0.0167958 -0.034401 -0.0462263 -0.0481238 -0.039129 -0.0369458 -0.0372159 -0.0329498 -0.0275157 -0.0190439 -0.012506 -0.00190575 0.0107132 0.0154353 0.0142232 0.0145281 0.0196043 0.0195389 0.0141256 0.0120926 0.00673833 0.00174786 -0.00159475 0.000316095 0.000755616 -0.0051148 -0.00826163 -0.00785388 -0.00529191 0.00091413 0.00765463 0.00769562 0.00397064 0.000567466 -0.00389098 -0.008737 -0.0145035 -0.016626 -0.0165723 -0.0192476 -0.0234436 -0.027315 -0.0319013 -0.035058 -0.0365896 -0.0389205 -0.0436533 -0.0489771 -0.0529488 -0.0544291 -0.0531326 -0.0515173 -0.0499689 -0.0478577 -0.0462155 -0.043323 -0.0415041 -0.0391552 -0.0373516 -0.04155 -0.0451367
285.5475 0.00025 -0.00299504 -0.00842704 -0.0214486 -0.0244351 -0.0317705 -0.0516929 -0.0465805 -0.0208893 -0.0143833 -0.0289171 -0.0456675 -0.0507488 -0.0588375 -0.0751559 -0.0790176 -0.0668484 -0.06047 -0.0508156 -0.0466417 -0.0320864 -0.0185613 -0.0223169 -0.0208402 -0.0134325 -0.0129398 -0.020339 -0.0171189 -0.0114486 -0.0168471 -0.0257111 -0.0382994 -0.0424788 -0.032972 -0.0275914 -0.0222763 -0.0129263 -0.00789523 -0.0050199 -0.00674446 -0.0171326 -0.0342989 -0.0464744 -0.0486721 -0.0395115 -0.0375518 -0.0377926 -0.0332509 -0.0278426 -0.0194353 -0.0126168 -0.00160931 0.0112379 0.0158093 0.0143504 0.0147235 0.01955 0.0192281 0.0138099 0.0117967 0.00663564 0.00183043 -0.00158647 0.000322691 0.00111284 -0.0045756 -0.0078451 -0.00756442 -0.00511338 0.00101271 0.00770555 0.00774019 0.00409921 0.00071982 -0.0037913 -0.00868544 -0.014522 -0.0167555 -0.0167288 -0.0193791 -0.0236129 -0.0275 -0.032066 -0.0352611 -0.0368262 -0.039069 -0.0436253 -0.0488608 -0.0528545 -0.0543188 -0.0529952 -0.0514093 -0.0499182 -0.0478618 -0.0462606 -0.04339 -0.0415745 -0.0392413 -0.0374068 -0.0415606 -0.0451532
285.55 0.00025 -0.0032263 -0.00864659 -0.0219494 -0.0249006 -0.0310598 -0.050583 -0.0456779 -0.0205273 -0.0142581 -0.0290294 -0.0460378 -0.0506681 -0.0590722 -0.0752297 -0.0791925 -0.0683297 -0.0617476 -0.0506746 -0.0464809 -0.0320178 -0.0186802 -0.022431 -0.0199969 -0.0118912 -0.0113641 -0.019159 -0.0168502 -0.0111129 -0.0160036 -0.0252255 -0.0384679 -0.0430069 -0.0335255 -0.0280621 -0.0226674 -0.0130749 -0.0081321 -0.00541543 -0.00720944 -0.017491 -0.0341746 -0.0466532 -0.0491611 -0.0399041 -0.0382161 -0.038404 -0.0335425 -0.0281634 -0.0198239 -0.0127095 -0.00129842 0.011755 0.0161685 0.0144773 0.0149437 0.0195212 0.0189223 0.0134871 0.0114775 0.00649946 0.0018978 -0.00156543 0.000325767 0.00144795 -0.00404179 -0.00741214 -0.00725418 -0.00492574 0.00111193 0.00775304 0.00778477 0.0042313 0.000874907 -0.00369116 -0.00863521 -0.0145399 -0.0168833 -0.0168865 -0.0195132 -0.0237839 -0.027685 -0.0322281 -0.0354602 -0.0370615 -0.0392228 -0.0436041 -0.048745 -0.0527569 -0.054207 -0.0528579 -0.0513007 -0.0498659 -0.0478655 -0.0463068 -0.0434574 -0.0416444 -0.0393274 -0.0374626 -0.0415715 -0.0451697
285.5525 0.00025 -0.00342701 -0.00885023 -0.0224656 -0.0253788 -0.0303974 -0.0494032 -0.0446685 -0.0202049 -0.0141672 -0.0291192 -0.0464981 -0.0506718 -0.0593437 -0.0752674 -0.0792293 -0.0697684 -0.0630585 -0.0505181 -0.0462728 -0.031959 -0.0188849 -0.022602 -0.019157 -0.010395 -0.00986672 -0.0179771 -0.0164962 -0.0107544 -0.0152057 -0.024749 -0.0386089 -0.0435068 -0.0340785 -0.0285136 -0.0230174 -0.0132218 -0.00837867 -0.00583814 -0.00771529 -0.0178738 -0.0340364 -0.0467638 -0.0495862 -0.0403045 -0.0389352 -0.0390496 -0.0338273 -0.0284778 -0.0202086 -0.0127845 -0.000973846 0.0122643 0.0165122 0.0146041 0.0151872 0.0195164 0.0186244 0.0131597 0.0111349 0.00632971 0.00194789 -0.00153318 0.000326985 0.00176285 -0.0035143 -0.00696472 -0.00692336 -0.00472848 0.00121215 0.00779747 0.00782957 0.00436647 0.00103272 -0.0035899 -0.00858605 -0.0145576 -0.0170097 -0.0170452 -0.0196496 -0.0239564 -0.0278703 -0.032388 -0.0356552 -0.037295 -0.0393813 -0.0435896 -0.0486303 -0.0526559 -0.0540935 -0.0527207 -0.0511915 -0.0498119 -0.0478689 -0.046354 -0.0435252 -0.0417138 -0.0394134 -0.037519 -0.0415828 -0.0451862
285.555 0.00025 -0.00359453 -0.00904242 -0.0229965 -0.0258618 -0.0297871 -0.048168 -0.0435549 -0.0199085 -0.014122 -0.0291894 -0.0470317 -0.0507652 -0.0596487 -0.075272 -0.0791379 -0.0711494 -0.0643934 -0.0503551 -0.0460215 -0.0319125 -0.0191724 -0.022819 -0.0183099 -0.00894696 -0.00846895 -0.0168087 -0.0160469 -0.0103658 -0.0144522 -0.0242814 -0.0387267 -0.0439784 -0.0346263 -0.0289431 -0.0233259 -0.0133734 -0.00863748 -0.00628257 -0.00825749 -0.0182836 -0.0338926 -0.0468079 -0.0499438 -0.0407105 -0.0397045 -0.0397284 -0.0341085 -0.0287855 -0.020588 -0.0128425 -0.000636562 0.0127653 0.0168402 0.0147313 0.0154524 0.0195335 0.018337 0.0128304 0.0107693 0.00612657 0.00197892 -0.00149162 0.000327664 0.00205951 -0.00299367 -0.00650491 -0.0065723 -0.0045211 0.00131365 0.00783916 0.00787483 0.00450425 0.00119328 -0.0034869 -0.00853766 -0.0145759 -0.017135 -0.0172047 -0.0197882 -0.0241305 -0.0280559 -0.0325461 -0.0358462 -0.0375262 -0.0395441 -0.0435821 -0.0485168 -0.0525518 -0.0539782 -0.0525837 -0.0510819 -0.0497562 -0.0478718 -0.0464022 -0.0435935 -0.0417828 -0.0394994 -0.0375759 -0.0415944 -0.0452027
285.5575 0.00025 -0.00372985 -0.00922834 -0.023538 -0.0263407 -0.029229 -0.0468945 -0.0423463 -0.0196219 -0.0141296 -0.0292462 -0.0476211 -0.0509511 -0.0599835 -0.075247 -0.0789302 -0.0724556 -0.0657422 -0.0501957 -0.0457318 -0.0318796 -0.0195368 -0.0230724 -0.0174506 -0.00754741 -0.00718727 -0.015671 -0.0154963 -0.009941 -0.0137406 -0.0238199 -0.0388253 -0.0444231 -0.0351647 -0.0293474 -0.0235929 -0.013536 -0.00891082 -0.00674272 -0.00883133 -0.0187229 -0.0337512 -0.0467877 -0.0502308 -0.04112 -0.0405186 -0.040439 -0.0343899 -0.0290864 -0.0209607 -0.0128844 -0.00028786 0.0132579 0.0171523 0.0148594 0.0157374 0.01957 0.0180622 0.0125023 0.0103811 0.00589017 0.00198947 -0.00144273 0.000328565 0.00234011 -0.00248015 -0.00603485 -0.00620153 -0.00430309 0.00141669 0.00787843 0.00792078 0.00464424 0.00135653 -0.00338154 -0.00848968 -0.0145951 -0.0172597 -0.0173648 -0.0199288 -0.0243059 -0.0282419 -0.0327026 -0.0360334 -0.0377547 -0.0397108 -0.0435815 -0.048405 -0.0524446 -0.0538611 -0.0524469 -0.0509718 -0.0496987 -0.0478741 -0.0464514 -0.0436623 -0.0418513 -0.0395852 -0.0376334 -0.0416064 -0.0452192
285.56 0.00025 -0.00383311 -0.00940985 -0.0240877 -0.0268113 -0.0287224 -0.0455995 -0.0410532 -0.0193294 -0.0141943 -0.0293007 -0.0482491 -0.051228 -0.0603446 -0.0751968 -0.0786187 -0.073671 -0.0670938 -0.0500502 -0.045409 -0.0318613 -0.01997 -0.0233525 -0.0165787 -0.00619617 -0.00603096 -0.0145817 -0.0148441 -0.00947421 -0.013067 -0.0233596 -0.0389083 -0.0448434 -0.0356897 -0.0297226 -0.0238199 -0.0137152 -0.00920096 -0.00721241 -0.0094316 -0.0191943 -0.0336196 -0.0467065 -0.0504457 -0.0415309 -0.0413706 -0.0411788 -0.0346759 -0.0293806 -0.0213249 -0.0129113 7.05564e-05 0.013742 0.0174489 0.0149893 0.0160406 0.0196232 0.017802 0.0121783 0.00997098 0.00562091 0.00197831 -0.00138864 0.000330118 0.00260671 -0.0019737 -0.00555656 -0.00581173 -0.00407386 0.00152159 0.00791564 0.00796767 0.00478601 0.00152228 -0.00327323 -0.00844166 -0.0146156 -0.0173842 -0.0175257 -0.0200713 -0.0244826 -0.0284284 -0.0328579 -0.0362167 -0.0379802 -0.0398809 -0.0435879 -0.0482952 -0.0523344 -0.0537423 -0.0523104 -0.0508614 -0.0496395 -0.0478757 -0.0465017 -0.0437316 -0.0419193 -0.0396709 -0.0376914 -0.0416187 -0.0452357
285.5625 0.00025 -0.00390523 -0.00958196 -0.0246494 -0.0272685 -0.0282661 -0.0442998 -0.0396899 -0.0190189 -0.0143139 -0.0293653 -0.0488991 -0.0515911 -0.060727 -0.0751262 -0.0782168 -0.0747806 -0.068435 -0.0499292 -0.045061 -0.0318581 -0.0204617 -0.0236489 -0.0156981 -0.00489432 -0.00500175 -0.0135575 -0.0140957 -0.00896117 -0.0124263 -0.0228943 -0.0389777 -0.0452431 -0.0361983 -0.0300646 -0.0240085 -0.0139156 -0.00951011 -0.00768619 -0.0100533 -0.0196997 -0.0335042 -0.0465683 -0.050588 -0.041942 -0.0422534 -0.0419444 -0.0349714 -0.0296687 -0.0216783 -0.0129245 0.000436751 0.0142176 0.017731 0.0151215 0.0163603 0.0196905 0.0175578 0.0118616 0.0095399 0.00531927 0.00194473 -0.00133141 0.000332425 0.00286123 -0.00147408 -0.00507184 -0.00540369 -0.00383285 0.00162857 0.00795107 0.00801581 0.00492917 0.00169035 -0.00316143 -0.00839315 -0.0146379 -0.0175088 -0.0176873 -0.0202153 -0.0246604 -0.0286154 -0.0330124 -0.0363964 -0.0382023 -0.0400539 -0.0436012 -0.0481878 -0.0522214 -0.0536216 -0.0521742 -0.0507507 -0.0495784 -0.0478765 -0.0465528 -0.0438015 -0.041987 -0.0397565 -0.0377499 -0.0416314 -0.0452522
285.565 0.00025 -0.00394701 -0.00974808 -0.025215 -0.0277098 -0.0278557 -0.0430153 -0.0382741 -0.0186809 -0.0144821 -0.0294533 -0.0495557 -0.0520328 -0.0611248 -0.0750406 -0.077738 -0.0757717 -0.069751 -0.0498413 -0.0446994 -0.0318697 -0.0209995 -0.0239497 -0.0148172 -0.00364451 -0.00409555 -0.0126106 -0.0132633 -0.00839991 -0.0118125 -0.0224173 -0.0390345 -0.0456252 -0.0366884 -0.03037 -0.0241605 -0.0141409 -0.00984036 -0.00815845 -0.0106915 -0.0202403 -0.0334109 -0.0463771 -0.0506583 -0.0423518 -0.0431592 -0.0427321 -0.0352813 -0.0299516 -0.0220187 -0.0129251 0.000808321 0.0146849 0.0179996 0.0152571 0.0166947 0.0197688 0.0173303 0.011555 0.00908919 0.00498581 0.00188827 -0.00127319 0.000335016 0.0031056 -0.000980744 -0.00458248 -0.00497853 -0.00357952 0.00173803 0.00798497 0.0080655 0.00507336 0.00186045 -0.00304565 -0.00834363 -0.0146621 -0.0176339 -0.0178495 -0.0203608 -0.0248392 -0.0288029 -0.0331662 -0.0365727 -0.0384209 -0.0402294 -0.0436215 -0.048083 -0.0521058 -0.053499 -0.0520383 -0.0506398 -0.0495155 -0.0478765 -0.0466049 -0.0438719 -0.0420543 -0.0398419 -0.0378088 -0.0416445 -0.0452687