285.5025 0.00025 7639.23 1722.49 1936.25 1992.92 1626.8 1551.13 1383.6 1300.25 1243.57 997.38 866.56 817.077 805.387 733.493 684.804 654.362 640.853 613.321 556.858 549.735 560.83 539.645 507.578 476.657 472.648 476.629 491.928 477.526 448.047 434.711 399.445 405.279 381 342.23 340.346 330.235 314.227 329.8 315.063 306.632 301.253 303.647 308.41 293.136 267.029 255.066 245.991 207.84 191.829 191.663 174.85 160.861 154.182 153.975 158.062 157.468 158.326 159.572 148.857 150.277 155.173 133.328 128.62 122.459 106.444 99.9273 90.5817 83.2007 77.1142 65.766 58.384 53.7792 51.2447 48.5105 43.4666 41.837 38.9332 37.7495 40.2937 40.9279 38.5042 38.0917 33.9206 30.7402 29.0184 24.8136 24.1093 24.8659 23.1155 19.599 20.1977 21.356 21.8961 21.1127 19.2838 19.5524 21.0478 23.5673 27.3364 10.7297
285.505 0.00025 7671.68 1723.75 1930.67 2003.79 1619.7 1557.38 1377.68 1297.95 1236.91 1001.46 868.706 810.868 803.921 731.377 681.965 654.615 639.365 615.401 558.713 551.127 560.981 541.386 509.625 474.141 469.139 477.631 497.218 480.139 449.148 436.505 400.316 405.79 379.85 342.289 339.523 328.62 313.949 330.266 315.239 305.128 300.6 302.403 308.728 291.956 266.367 254.044 245.927 207.989 191.67 191.99 174.651 160.539 154.996 154.295 157.992 157.377 157.175 159.188 148.866 149.608 155.261 133.721 128.089 122.906 106.648 99.7988 90.8918 82.8834 77.232 66.212 58.5977 53.926 51.2814 48.4094 43.5409 41.9154 38.9423 37.7006 40.2401 40.9721 38.3644 37.939 33.9548 30.7038 28.9038 24.9336 24.1362 24.7899 23.1165 19.6096 20.1464 21.3264 21.9103 21.1514 19.2803 19.5429 21.0461 23.5768 27.313 10.7168
285.5075 0.00025 7703.4 1724.45 1925.33 2014.12 1612.42 1563.48 1372.17 1295.43 1230.51 1004.69 871.341 805.206 801.837 729.75 679.483 655.068 637.987 616.984 560.273 553.068 560.848 543.567 511.468 472.025 465.652 478.328 502.598 482.29 450.436 438.322 401.518 406.137 378.593 342.631 338.684 326.703 313.991 330.808 315.392 303.545 300.184 301.058 308.834 290.965 265.788 252.985 245.765 208.15 191.559 192.245 174.447 160.267 155.753 154.646 157.982 157.243 156.061 158.712 148.941 148.951 155.219 134.193 127.572 123.307 106.865 99.6662 91.2024 82.6053 77.2911 66.6639 58.8211 54.0821 51.3315 48.3075 43.6062 41.9935 38.968 37.6491 40.1773 41.0171 38.2387 37.7821 33.9854 30.6765 28.7821 25.0473 24.1697 24.7119 23.1137 19.6232 20.0962 21.2977 21.9218 21.1896 19.2781 19.5343 21.0449 23.5857 27.2905 10.7041
285.51 0.00025 7734.3 1724.71 1920.78 2023.2 1605.7 1569.07 1367.24 1292.42 1224.79 1007.13 873.907 800.627 799.024 728.661 677.328 655.615 636.904 618.133 561.406 555.522 560.443 546.169 513.065 470.342 462.3 478.655 507.971 484.082 451.804 440.191 403.07 406.313 377.246 343.217 337.841 324.536 314.304 331.449 315.527 301.892 299.972 299.656 308.689 290.156 265.323 251.891 245.488 208.327 191.492 192.433 174.244 160.056 156.437 155.026 158.041 157.049 155.006 158.137 149.07 148.319 155.051 134.72 127.095 123.657 107.092 99.5342 91.5068 82.375 77.291 67.1176 59.0557 54.2455 51.396 48.2063 43.6622 42.0704 39.0095 37.5973 40.105 41.0619 38.127 37.6218 34.0119 30.6574 28.6557 25.1532 24.2095 24.6328 23.1069 19.6396 20.0474 21.2701 21.9308 21.2272 19.2772 19.5266 21.044 23.5941 27.2689 10.6914
285.5125 0.00025 7764.23 1724.55 1917.51 2030.25 1600.15 1573.9 1362.98 1288.66 1220.06 1009 875.925 797.399 795.555 728.079 675.442 656.2 636.237 618.897 562.076 558.354 559.862 549.12 514.414 469.064 459.209 478.609 513.136 485.707 453.13 442.118 404.971 406.338 375.819 344.004 336.994 322.204 314.809 332.205 315.657 300.191 299.922 298.233 308.282 289.5 265.003 250.766 245.078 208.526 191.464 192.561 174.045 159.913 157.035 155.432 158.175 156.784 154.027 157.464 149.24 147.723 154.767 135.27 126.684 123.955 107.321 99.4053 91.7999 82.1994 77.2332 67.5686 59.3031 54.4141 51.4759 48.1072 43.7087 42.1453 39.0659 37.5472 40.0232 41.1055 38.029 37.4593 34.0339 30.6456 28.5267 25.2505 24.2549 24.5531 23.096 19.6584 20.0001 21.2435 21.9374 21.2638 19.2778 19.5199 21.0436 23.602 27.2482 10.6789
285.515 0.00025 7793.17 1723.99 1915.9 2034.65 1596.1 1577.96 1359.39 1284.03 1216.43 1010.54 877.219 795.383 791.679 727.943 673.774 656.8 636.042 619.319 562.352 561.338 559.26 552.308 515.53 468.114 456.506 478.242 517.82 487.414 454.297 444.094 407.205 406.257 374.321 344.948 336.136 319.814 315.403 333.094 315.8 298.476 299.987 296.823 307.616 288.951 264.861 249.618 244.519 208.753 191.465 192.634 173.858 159.839 157.54 155.857 158.385 156.446 153.132 156.699 149.435 147.174 154.379 135.814 126.359 124.202 107.548 99.2808 92.078 82.0835 77.1207 68.0119 59.5649 54.5858 51.5722 48.0116 43.7458 42.2175 39.136 37.5008 39.932 41.1467 37.9444 37.2956 34.0515 30.6399 28.3973 25.3382 24.3052 24.4738 23.0807 19.6795 19.9545 21.2179 21.9418 21.2995 19.2797 19.5141 21.0436 23.6091 27.2283 10.6665
285.5175 0.00025 7821.18 1723.04 1916.22 2036.09 1593.59 1581.32 1356.46 1278.51 1213.94 1011.89 877.941 794.143 787.703 728.191 672.274 657.393 636.319 619.42 562.412 564.177 558.814 555.609 516.422 467.386 454.32 477.65 521.711 489.461 455.22 446.079 409.739 406.131 372.766 345.997 335.257 317.481 315.974 334.127 315.981 296.783 300.114 295.452 306.717 288.451 264.928 248.455 243.795 209.009 191.49 192.655 173.689 159.832 157.952 156.295 158.666 156.036 152.328 155.852 149.638 146.678 153.906 136.32 126.136 124.403 107.767 99.1614 92.3387 82.0304 76.9577 68.4421 59.8428 54.7584 51.6854 47.9209 43.7736 42.2863 39.2187 37.4599 39.8316 41.1845 37.8726 37.1318 34.0644 30.639 28.2695 25.416 24.3594 24.3955 23.0611 19.7023 19.9108 21.1933 21.944 21.3338 19.283 19.5094 21.0441 23.6156 27.2093 10.6543
285.52 0.00025 7848.15 1721.73 1918.61 2034.71 1592.34 1583.99 1354.23 1272.19 1212.46 1013.11 878.439 793.152 783.87 728.786 670.883 657.936 637.044 619.196 562.502 566.566 558.681 558.917 517.075 466.773 452.746 476.97 524.511 492.064 455.87 448.015 412.521 406.026 371.182 347.084 334.355 315.321 316.411 335.303 316.23 295.154 300.254 294.136 305.615 287.943 265.224 247.288 242.904 209.295 191.534 192.626 173.548 159.886 158.275 156.738 159.012 155.561 151.611 154.939 149.832 146.241 153.366 136.76 126.023 124.566 107.975 99.047 92.5799 82.0418 76.7498 68.8533 60.1383 54.9304 51.8159 47.8365 43.7924 42.3512 39.3125 37.4261 39.7227 41.2182 37.8127 36.9688 34.073 30.6416 28.1448 25.4837 24.4165 24.3189 23.0372 19.7266 19.8692 21.1697 21.9444 21.3668 19.2877 19.5058 21.0449 23.6213 27.1912 10.6421
285.5225 0.00025 7874.14 1720.18 1922.97 2030.98 1591.89 1585.87 1352.91 1265.27 1211.75 1014.23 879.085 792.003 780.282 729.677 669.552 658.382 638.203 618.599 562.901 568.233 558.965 562.141 517.454 466.195 451.835 476.351 525.977 495.355 456.274 449.84 415.479 406.002 369.629 348.125 333.446 313.427 316.617 336.604 316.583 293.626 300.362 292.889 304.344 287.372 265.755 246.127 241.848 209.603 191.595 192.547 173.446 159.988 158.516 157.177 159.411 155.034 150.977 153.978 150.001 145.866 152.778 137.108 126.022 124.7 108.168 98.9364 92.8003 82.1179 76.5038 69.2398 60.4522 55.1003 51.9636 47.76 43.8026 42.4116 39.4163 37.4008 39.606 41.2468 37.7639 36.8077 34.0772 30.6467 28.0248 25.5416 24.4752 24.2447 23.0089 19.7518 19.8299 21.1471 21.9431 21.3982 19.2937 19.5033 21.0462 23.6264 27.1741 10.6301
285.525 0.00025 7899.12 1718.44 1929.2 2025.42 1591.74 1586.78 1352.81 1257.97 1211.48 1015.25 880.127 790.501 776.873 730.775 668.263 658.693 639.823 617.521 563.854 568.994 559.703 565.202 517.53 465.602 451.582 475.94 525.959 499.347 456.534 451.49 418.522 406.107 368.184 349.027 332.561 311.864 316.521 337.999 317.082 292.227 300.404 291.718 302.946 286.694 266.512 244.983 240.641 209.92 191.674 192.418 173.392 160.128 158.687 157.604 159.85 154.468 150.42 152.985 150.129 145.554 152.162 137.347 126.132 124.817 108.343 98.8294 92.9985 82.2578 76.2273 69.5961 60.785 55.2674 52.1277 47.693 43.8047 42.4671 39.5287 37.3849 39.4826 41.2695 37.7252 36.6494 34.0775 30.6531 27.9104 25.5902 24.5344 24.1735 22.9766 19.7777 19.7931 21.1253 21.9402 21.4279 19.3011 19.502 21.0479 23.6306 27.1578 10.6181
285.5275 0.00025 7923.13 1716.54 1937 2018.51 1591.48 1586.61 1354.24 1250.57 1211.38 1016.23 881.64 788.658 773.48 731.973 667.039 658.842 641.948 615.841 565.52 568.796 560.843 568.029 517.294 464.989 451.923 475.855 524.434 503.917 456.806 452.911 421.552 406.36 366.946 349.696 331.745 310.663 316.086 339.437 317.766 290.978 300.353 290.624 301.462 285.882 267.466 243.87 239.31 210.225 191.774 192.237 173.394 160.289 158.799 158.013 160.311 153.877 149.929 151.981 150.207 145.304 151.536 137.464 126.341 124.932 108.496 98.7257 93.1729 82.4595 75.9288 69.9161 61.1369 55.4317 52.3067 47.6373 43.799 42.5171 39.6483 37.3794 39.3536 41.2857 37.6953 36.4948 34.0741 30.6599 27.8022 25.6304 24.5927 24.1058 22.9403 19.8037 19.7588 21.1044 21.936 21.4557 19.3098 19.502 21.05 23.6341 27.1424 10.6063
285.53 0.00025 7946.2 1714.64 1945.96 2010.68 1590.86 1585.26 1357.3 1243.28 1211.28 1017.29 883.524 786.611 769.912 733.115 665.971 658.782 644.61 613.49 567.891 567.739 562.266 570.563 516.753 464.388 452.748 476.175 521.512 508.824 457.291 454.064 424.471 406.76 366.02 350.046 331.054 309.819 315.315 340.849 318.674 289.889 300.197 289.608 299.924 284.922 268.567 242.808 237.885 210.495 191.901 192 173.458 160.459 158.865 158.397 160.774 153.277 149.496 150.983 150.227 145.111 150.912 137.454 126.632 125.057 108.628 98.6252 93.3223 82.7194 75.6179 70.1941 61.5072 55.5936 52.4986 47.5949 43.7861 42.5615 39.7739 37.3848 39.2204 41.2949 37.6732 36.3444 34.0673 30.6664 27.7008 25.6633 24.6488 24.042 22.9004 19.8294 19.7273 21.0844 21.9308 21.4815 19.3196 19.5032 21.0525 23.6368 27.1279 10.5946
285.5325 0.00025 7968.23 1712.79 1955.54 2002.16 1589.76 1582.8 1361.96 1236.26 1211.14 1018.58 885.597 784.517 766.058 734.006 665.217 658.45 647.781 610.503 570.775 566.058 563.803 572.751 515.944 463.877 453.916 476.929 517.424 513.748 458.196 454.928 427.195 407.285 365.499 350.017 330.548 309.298 314.244 342.161 319.835 288.957 299.932 288.665 298.368 283.814 269.75 241.818 236.405 210.699 192.061 191.709 173.587 160.629 158.893 158.756 161.218 152.681 149.11 150.005 150.184 144.971 150.301 137.32 126.987 125.206 108.738 98.5283 93.4449 83.0326 75.3051 70.4242 61.8951 55.7544 52.701 47.5678 43.7666 42.5999 39.9041 37.4013 39.0843 41.2963 37.6576 36.1991 34.0574 30.672 27.606 25.69 24.7015 23.9824 22.8571 19.8545 19.6986 21.065 21.9247 21.5052 19.3305 19.5057 21.0554 23.6386 27.1142 10.583
285.535 0.00025 7989.2 1711.09 1965.39 1993.35 1588.08 1579.47 1367.98 1229.61 1211 1020.23 887.657 782.481 761.939 734.413 664.96 657.8 651.346 607.067 573.818 564.082 565.28 574.548 514.91 463.558 455.273 478.088 512.481 518.332 459.703 455.501 429.655 407.906 365.446 349.592 330.275 309.038 312.934 343.292 321.26 288.179 299.557 287.792 296.821 282.573 270.936 240.924 234.91 210.81 192.261 191.363 173.782 160.792 158.889 159.09 161.622 152.103 148.764 149.062 150.082 144.876 149.711 137.068 127.38 125.39 108.827 98.4357 93.5399 83.3924 75.0023 70.6007 62.2992 55.9158 52.9109 47.5584 43.741 42.6323 40.0377 37.429 38.9468 41.2897 37.6474 36.0592 34.0447 30.6765 27.5176 25.712 24.7496 23.9273 22.8108 19.8785 19.6729 21.0464 21.9178 21.5268 19.3425 19.5097 21.0586 23.6397 27.1014 10.5715
285.5375 0.00025 8008.99 1709.59 1975.15 1984.64 1585.75 1575.53 1374.99 1223.41 1210.83 1022.37 889.527 780.51 757.695 734.112 665.355 656.854 655.068 603.517 576.569 562.146 566.556 575.898 513.711 463.541 456.692 479.574 507.041 522.245 461.926 455.8 431.818 408.588 365.881 348.8 330.265 308.966 311.465 344.173 322.944 287.551 299.075 286.987 295.308 281.223 272.043 240.147 233.439 210.803 192.505 190.967 174.037 160.944 158.855 159.402 161.965 151.552 148.447 148.162 149.922 144.817 149.146 136.712 127.789 125.616 108.898 98.3485 93.6064 83.7908 74.7215 70.7181 62.7176 56.0798 53.1254 47.5684 43.7099 42.6588 40.1732 37.4679 38.8097 41.2745 37.6417 35.9252 34.0293 30.6798 27.4352 25.7306 24.792 23.8767 22.7619 19.9011 19.6502 21.0284 21.9105 21.546 19.3554 19.515 21.0623 23.6399 27.0894 10.5601
285.54 0.00025 8027.64 1708.25 1984.63 1976.45 1582.76 1571.33 1382.57 1217.8 1210.51 1025.01 891.113 778.55 753.542 732.928 666.463 655.739 658.616 600.283 578.571 560.518 567.552 576.761 512.405 463.915 458.093 481.244 501.466 525.216 464.896 455.867 433.668 409.312 366.776 347.714 330.527 309.011 309.921 344.747 324.856 287.075 298.48 286.25 293.851 279.792 272.988 239.508 232.025 210.657 192.79 190.529 174.345 161.088 158.789 159.699 162.229 151.038 148.154 147.312 149.713 144.785 148.607 136.27 128.189 125.891 108.956 98.2686 93.6442 84.2178 74.4757 70.7715 63.1478 56.2486 53.3416 47.5995 43.6742 42.6795 40.3094 37.5175 38.6745 41.2505 37.6393 35.7974 34.0113 30.6818 27.3582 25.747 24.828 23.8305 22.7108 19.9219 19.6304 21.011 21.9029 21.563 19.3691 19.5219 21.0664 23.6394 27.0781 10.5488
285.5425 0.00025 8045.15 1707.15 1993.74 1969.31 1579.21 1567.14 1390.25 1212.95 1209.81 1028.15 892.395 776.531 749.712 730.792 668.197 654.662 661.629 597.778 579.486 559.33 568.237 577.123 511.037 464.732 459.476 482.91 496.097 527.064 468.544 455.777 435.205 410.071 368.054 346.458 331.038 309.11 308.381 344.981 326.938 286.766 297.766 285.585 292.464 278.309 273.697 239.023 230.698 210.358 193.113 190.061 174.695 161.231 158.686 159.986 162.398 150.567 147.878 146.518 149.465 144.773 148.091 135.759 128.557 126.214 109.004 98.1983 93.6537 84.6619 74.2783 70.757 63.5865 56.4249 53.5565 47.653 43.6345 42.6949 40.4448 37.5775 38.5429 41.2173 37.6396 35.6758 33.991 30.6829 27.2859 25.7625 24.8571 23.7885 22.6579 19.9408 19.6138 20.9942 21.8951 21.5777 19.3835 19.5302 21.0708 23.638 27.0677 10.5376
285.545 0.00025 8061.5 1706.33 2002.42 1963.59 1575.19 1563.23 1397.58 1209.09 1208.43 1031.73 893.421 774.42 746.37 727.781 670.323 653.879 663.848 596.291 579.172 558.562 568.642 577.005 509.629 465.989 460.914 484.336 491.229 527.712 472.704 455.635 436.43 410.873 369.601 345.187 331.757 309.216 306.909 344.869 329.115 286.645 296.92 284.996 291.158 276.801 274.112 238.698 229.48 209.904 193.462 189.577 175.076 161.381 158.541 160.269 162.464 150.14 147.613 145.78 149.186 144.776 147.593 135.203 128.871 126.583 109.048 98.1396 93.6373 85.1099 74.1417 70.6721 64.0297 56.6114 53.7679 47.7301 43.592 42.7056 40.5781 37.6472 38.4165 41.1747 37.6416 35.5605 33.9683 30.6832 27.2176 25.778 24.8789 23.7504 22.6037 19.9573 19.6001 20.9779 21.8873 21.5901 19.3984 19.5401 21.0756 23.6359 27.058 10.5264
285.5475 0.00025 8076.57 1705.92 2010.67 1959.61 1570.8 1559.76 1404.1 1206.36 1206.15 1035.63 894.288 772.283 743.578 724.131 672.492 653.601 665.188 595.867 577.725 558.052 568.819 576.464 508.19 467.636 462.543 485.266 487.097 527.201 477.122 455.563 437.353 411.747 371.27 344.073 332.622 309.299 305.558 344.424 331.296 286.743 295.932 284.481 289.944 275.294 274.19 238.531 228.387 209.299 193.823 189.096 175.471 161.548 158.348 160.551 162.423 149.758 147.356 145.097 148.887 144.788 147.104 134.624 129.117 126.993 109.095 98.0957 93.5987 85.548 74.078 70.5158 64.4725 56.8109 53.9737 47.831 43.5478 42.7122 40.7079 37.7256 38.297 41.1227 37.6449 35.4514 33.9432 30.6832 27.1527 25.7942 24.8933 23.7155 22.5488 19.9713 19.5893 20.9621 21.8798 21.6002 19.4138 19.5516 21.0808 23.6331 27.049 10.5153
285.55 0.00025 8090.15 1706.05 2018.33 1957.48 1566.15 1556.84 1409.46 1204.86 1202.85 1039.72 895.145 770.271 741.263 720.207 674.324 653.924 665.756 596.325 575.435 557.566 568.812 575.573 506.731 469.572 464.538 485.453 483.851 525.682 481.492 455.684 437.992 412.725 372.916 343.283 333.56 309.348 304.361 343.684 333.38 287.095 294.794 284.03 288.834 273.804 273.91 238.506 227.432 208.557 194.18 188.636 175.866 161.742 158.103 160.831 162.276 149.417 147.102 144.468 148.576 144.803 146.617 134.041 129.282 127.431 109.15 98.0684 93.5425 85.9618 74.0971 70.2893 64.9088 57.0256 54.1725 47.9558 43.503 42.7154 40.8331 37.8119 38.1858 41.061 37.6489 35.3483 33.9157 30.6833 27.0906 25.8117 24.9007 23.6834 22.4934 19.9827 19.5813 20.9468 21.8725 21.608 19.4293 19.5647 21.0863 23.6295 27.0407 10.5044
285.5525 0.00025 8102.25 1706.84 2025.38 1957.16 1561.47 1554.51 1413.36 1204.65 1198.56 1043.81 896.16 768.582 739.273 716.398 675.511 654.784 665.816 597.323 572.691 556.879 568.649 574.395 505.303 471.657 467.068 484.717 481.549 523.396 485.502 456.094 438.383 413.83 374.411 342.959 334.505 309.366 303.335 342.704 335.27 287.729 293.514 283.626 287.837 272.342 273.273 238.601 226.619 207.696 194.514 188.215 176.246 161.972 157.806 161.104 162.031 149.11 146.849 143.888 148.265 144.817 146.125 133.475 129.359 127.887 109.219 98.0601 93.4746 86.3378 74.2067 69.9966 65.3319 57.2579 54.3634 48.1039 43.4592 42.7159 40.9526 37.905 38.0844 40.9898 37.6531 35.2509 33.8858 30.6838 27.031 25.8307 24.9015 23.6534 22.4382 19.9913 19.5761 20.932 21.8656 21.6137 19.445 19.5794 21.0923 23.6252 27.0331 10.4935
285.555 0.00025 8112.74 1708.4 2031.74 1958.5 1557.04 1552.63 1415.6 1205.72 1193.39 1047.72 897.534 767.385 737.448 712.998 675.899 655.968 665.694 598.495 569.889 555.837 568.336 572.955 504.002 473.733 470.25 482.99 480.133 520.642 488.872 456.838 438.591 415.07 375.661 343.192 335.403 309.367 302.483 341.547 336.879 288.666 292.115 283.236 286.966 270.913 272.3 238.783 225.949 206.744 194.803 187.851 176.599 162.24 157.461 161.361 161.701 148.829 146.596 143.353 147.962 144.825 145.62 132.939 129.344 128.344 109.307 98.073 93.4014 86.6635 74.4114 69.644 65.7339 57.5096 54.546 48.2744 43.4178 42.7147 41.0653 38.0037 37.9942 40.9091 37.6574 35.159 33.8533 30.6849 26.9736 25.8512 24.8963 23.6247 22.3834 19.997 19.5734 20.9177 21.8592 21.6173 19.4605 19.5957 21.0986 23.6201 27.026 10.4826
285.5575 0.00025 8121.49 1710.86 2037.43 1961.45 1553.28 1550.88 1416.07 1208 1187.5 1051.21 899.47 766.753 735.685 710.118 675.527 657.189 665.67 599.555 567.32 554.391 567.865 571.224 502.961 475.675 474.092 480.349 479.454 517.735 491.404 457.893 438.712 416.416 376.631 344.019 336.218 309.375 301.79 340.278 338.136 289.907 290.637 282.825 286.23 269.516 271.026 239.019 225.414 205.731 195.03 187.557 176.915 162.55 157.075 161.587 161.302 148.562 146.342 142.86 147.674 144.82 145.096 132.448 129.24 128.788 109.419 98.1085 93.3301 86.9285 74.7119 69.2414 66.1062 57.7819 54.721 48.4658 43.3806 42.7125 41.1707 38.1065 37.9162 40.8193 37.6613 35.0721 33.8181 30.687 26.9185 25.8728 24.8859 23.5965 22.3295 19.9998 19.5732 20.9039 21.8534 21.619 19.4759 19.6137 21.1054 23.6144 27.0196 10.4719
285.56 0.00025 8128.46 1714.23 2042.46 1965.92 1550.67 1548.8 1414.77 1211.29 1181.16 1054.04 902.118 766.642 733.97 707.672 674.596 658.169 665.9 600.368 565.147 552.572 567.229 569.128 502.312 477.437 478.464 477.024 479.281 514.949 493 459.169 438.874 417.812 377.34 345.409 336.936 309.418 301.238 338.961 338.992 291.434 289.138 282.352 285.637 268.145 269.498 239.278 225 204.693 195.176 187.341 177.189 162.897 156.66 161.767 160.852 148.297 146.084 142.406 147.407 144.799 144.553 132.011 129.052 129.203 109.555 98.1677 93.2676 87.1249 75.1048 68.8013 66.4396 58.0754 54.8896 48.6766 43.3493 42.7101 41.2681 38.2122 37.8515 40.7206 37.6646 34.99 33.7802 30.6901 26.8657 25.8952 24.8713 23.5681 22.2767 19.9997 19.5751 20.8905 21.8483 21.6189 19.4908 19.6333 21.1126 23.608 27.0138 10.4612
285.5625 0.00025 8133.59 1718.45 2046.85 1971.72 1549.78 1545.82 1411.86 1215.25 1174.69 1055.98 905.542 766.941 732.329 705.458 673.402 658.708 666.4 600.954 563.404 550.476 566.427 566.566 502.122 479.09 483.094 473.374 479.346 512.468 493.676 460.516 439.204 419.181 377.856 347.277 337.568 309.529 300.801 337.653 339.414 293.208 287.686 281.781 285.183 266.793 267.769 239.532 224.684 203.667 195.227 187.205 177.421 163.273 156.227 161.885 160.372 148.024 145.821 141.989 147.166 144.757 143.988 131.632 128.788 129.574 109.716 98.2511 93.2207 87.2486 75.5819 68.339 66.7242 58.3901 55.0534 48.9045 43.3259 42.7082 41.3572 38.3191 37.801 40.6135 37.6671 34.9122 33.7395 30.6943 26.8156 25.9178 24.8534 23.539 22.2252 19.9969 19.5791 20.8775 21.844 21.617 19.5052 19.6545 21.1203 23.6009 27.0085 10.4506
285.565 0.00025 8136.87 1723.42 2050.61 1978.53 1551.02 1541.5 1407.64 1219.43 1168.45 1056.84 909.65 767.563 730.798 703.246 672.241 658.715 667.05 601.456 562.019 548.21 565.489 563.437 502.388 480.799 487.603 469.829 479.396 510.368 493.543 461.768 439.809 420.448 378.276 349.491 338.143 309.739 300.448 336.406 339.39 295.174 286.354 281.086 284.858 265.457 265.894 239.764 224.438 202.689 195.175 187.146 177.616 163.669 155.788 161.926 159.878 147.731 145.553 141.606 146.955 144.686 143.403 131.315 128.459 129.889 109.901 98.3579 93.1959 87.2989 76.1312 67.8729 66.9503 58.7248 55.215 49.1472 43.3122 42.7074 41.438 38.4259 37.7652 40.4987 37.6684 34.8384 33.6959 30.6995 26.7685 25.9398 24.8331 23.5085 22.1751 19.9915 19.5849 20.865 21.8404 21.6137 19.5189 19.6774 21.1285 23.5932 27.0037 10.44
285.5675 0.00025 8138.25 1728.93 2053.69 1985.98 1554.68 1535.5 1402.45 1223.43 1162.72 1056.57 914.168 768.466 729.409 700.88 671.331 658.209 667.639 602.064 560.887 545.858 564.46 559.692 503.014 482.778 491.603 466.8 479.244 508.604 492.777 462.769 440.746 421.56 378.713 351.896 338.706 310.075 300.157 335.259 338.923 297.271 285.214 280.249 284.646 264.13 263.924 239.961 224.234 201.793 195.018 187.15 177.783 164.072 155.356 161.878 159.385 147.408 145.279 141.256 146.78 144.581 142.802 131.058 128.078 130.137 110.108 98.4871 93.1989 87.2784 76.7367 67.4226 67.1086 59.0773 55.377 49.4024 43.3101 42.7085 41.5106 38.5309 37.7447 40.3768 37.6683 34.7683 33.6494 30.7054 26.7249 25.9608 24.8111 23.4764 22.1264 19.9836 19.5923 20.8529 21.8376 21.609 19.5318 19.7017 21.1372 23.585 26.9995 10.4295
285.57 0.00025 8137.74 1734.73 2055.88 1993.67 1560.78 1527.76 1396.56 1227 1157.64 1055.29 918.745 769.687 728.175 698.334 670.78 657.281 667.911 602.945 559.907 543.467 563.402 555.35 503.837 485.21 494.792 464.602 478.804 507.035 491.58 463.415 442.006 422.496 379.265 354.329 339.311 310.559 299.91 334.244 338.026 299.433 284.328 279.269 284.518 262.809 261.905 240.12 224.043 201.003 194.763 187.2 177.937 164.466 154.939 161.733 158.906 147.049 144.998 140.936 146.642 144.436 142.191 130.858 127.657 130.31 110.334 98.6362 93.2345 87.1936 77.3794 67.0088 67.1913 59.4447 55.5423 49.6677 43.3215 42.7121 41.5752 38.6327 37.7396 40.2489 37.6663 34.7017 33.6001 30.7117 26.6856 25.98 24.7882 23.4424 22.079 19.9735 19.6011 20.8413 21.8357 21.6032 19.5436 19.7276 21.1464 23.5762 26.9956 10.4191
285.5725 0.00025 8135.54 1740.61 2056.98 2001.27 1569.21 1518.44 1390.13 1230.12 1153.15 1053.29 922.98 771.302 727.085 695.7 670.562 656.072 667.62 604.199 559.041 541.036 562.372 550.535 504.649 488.195 497.019 463.391 478.102 505.467 490.142 463.669 443.517 423.269 380.009 356.638 340.015 311.207 299.7 333.381 336.723 301.601 283.74 278.158 284.442 261.492 259.879 240.241 223.837 200.337 194.423 187.273 178.094 164.838 154.543 161.49 158.449 146.65 144.711 140.643 146.546 144.245 141.576 130.709 127.209 130.403 110.574 98.802 93.3064 87.054 78.0388 66.6513 67.1924 59.8228 55.7136 49.9407 43.3479 42.7189 41.6324 38.7299 37.7499 40.1159 37.6621 34.6382 33.5481 30.718 26.651 25.9968 24.7647 23.4066 22.0325 19.9615 19.6109 20.83 21.8346 21.5963 19.5544 19.7549 21.1561 23.5668 26.9922 10.4087
285.575 0.00025 8131.71 1746.33 2056.52 2008.6 1579.72 1507.92 1383.29 1232.92 1149.13 1050.96 926.541 773.398 726.098 693.15 670.543 654.728 666.566 605.833 558.312 538.537 561.397 545.469 505.244 491.714 498.313 463.148 477.255 503.697 488.611 463.556 445.159 423.918 380.995 358.694 340.869 312.025 299.531 332.685 335.045 303.725 283.475 276.945 284.375 260.177 257.879 240.329 223.602 199.807 194.016 187.343 178.274 165.175 154.171 161.152 158.016 146.21 144.417 140.371 146.494 144.004 140.964 130.602 126.748 130.412 110.823 98.9801 93.4176 86.8718 78.6927 66.3683 67.1088 60.2059 55.8932 50.2193 43.3907 42.7296 41.6827 38.8212 37.7755 39.979 37.6554 34.5777 33.4934 30.7237 26.6218 26.011 24.741 23.3691 21.9868 19.9478 19.6217 20.8192 21.8344 21.5886 19.5639 19.7837 21.1665 23.557 26.9891 10.3984
285.5775 0.00025 8126.29 1751.64 2054.2 2015.68 1592.07 1496.65 1376.18 1235.62 1145.47 1048.73 929.177 776.027 725.13 690.911 670.509 653.37 664.625 607.753 557.787 535.949 560.465 540.439 505.462 495.631 498.854 463.707 476.422 501.569 487.084 463.14 446.803 424.482 382.253 360.404 341.912 313.016 299.422 332.151 333.032 305.769 283.533 275.666 284.279 258.867 255.934 240.387 223.329 199.412 193.568 187.384 178.492 165.465 153.824 160.729 157.605 145.731 144.116 140.115 146.487 143.709 140.362 130.528 126.285 130.339 111.076 99.1657 93.5695 86.6609 79.3196 66.1747 66.941 60.5874 56.0832 50.502 43.4513 42.745 41.7269 38.9051 37.8158 39.8394 37.6456 34.5199 33.4364 30.7283 26.5986 26.0221 24.7171 23.3303 21.9414 19.9327 19.633 20.8087 21.8349 21.5803 19.5722 19.8137 21.1775 23.5466 26.9864 10.3881
285.58 0.00025 8119.52 1756.26 2049.97 2022.64 1605.83 1485.03 1368.95 1238.28 1142.14 1047.02 930.724 779.176 724.086 689.199 670.246 652.079 661.771 609.808 557.522 533.292 559.514 535.745 505.222 499.702 498.92 464.819 475.775 498.998 485.614 462.49 448.352 424.983 383.793 361.712 343.167 314.173 299.406 331.763 330.731 307.707 283.9 274.364 284.115 257.562 254.063 240.419 223.019 199.146 193.105 187.37 178.765 165.699 153.497 160.233 157.21 145.219 143.808 139.87 146.526 143.361 139.776 130.477 125.832 130.186 111.328 99.3531 93.7619 86.436 79.9002 66.0813 66.6929 60.9596 56.2851 50.7871 43.5306 42.7658 41.766 38.9807 37.8701 39.6984 37.6324 34.4647 33.3774 30.7311 26.5818 26.03 24.693 23.2908 21.8958 19.9167 19.6448 20.7986 21.8364 21.5715 19.579 19.8449 21.1891 23.5359 26.9839 10.378
285.5825 0.00025 8111.47 1760.04 2043.95 2029.62 1620.66 1473.55 1361.7 1240.89 1139.16 1046.16 931.145 782.721 722.923 688.162 669.596 650.873 658.083 611.819 557.52 530.658 558.434 531.65 504.558 503.637 498.824 466.213 475.44 495.986 484.228 461.651 449.762 425.419 385.607 362.606 344.635 315.487 299.526 331.488 328.203 309.519 284.54 273.084 283.848 256.263 252.282 240.425 222.683 198.998 192.653 187.282 179.104 165.872 153.186 159.681 156.819 144.684 143.491 139.631 146.606 142.963 139.212 130.44 125.398 129.956 111.575 99.5369 93.9942 86.2129 80.4176 66.0944 66.3722 61.314 56.4993 51.0736 43.6295 42.7929 41.801 39.0468 37.9377 39.5573 37.6153 34.4118 33.3167 30.7314 26.572 26.0346 24.6683 23.2511 21.8494 19.8999 19.6568 20.7888 21.8385 21.5624 19.5845 19.8773 21.2013 23.5248 26.9818 10.3678
285.585 0.00025 8102.27 1762.84 2036.37 2036.65 1636.24 1462.67 1354.46 1243.31 1136.7 1046.33 930.534 786.421 721.667 687.862 668.485 649.703 653.727 613.623 557.72 528.232 557.082 528.337 503.607 507.15 498.845 467.655 475.475 492.623 482.918 460.626 451.042 425.765 387.674 363.118 346.295 316.945 299.827 331.283 325.515 311.184 285.412 271.863 283.452 254.968 250.603 240.401 222.336 198.951 192.238 187.105 179.514 165.985 152.888 159.089 156.421 144.139 143.165 139.393 146.721 142.521 138.669 130.407 124.99 129.654 111.811 99.7114 94.264 86.0071 80.8582 66.2145 65.9902 61.6421 56.726 51.3602 43.7484 42.827 41.8329 39.1026 38.0173 39.4175 37.5941 34.3609 33.2547 30.7285 26.5695 26.0362 24.6426 23.2119 21.8019 19.8828 19.6688 20.7794 21.8415 21.5533 19.5884 19.9107 21.2142 23.5134 26.9798 10.3578
285.5875 0.00025 8092.19 1764.59 2027.43 2043.68 1652.28 1452.83 1347.25 1245.3 1135 1047.44 929.123 789.942 720.432 688.263 666.898 648.487 648.926 615.079 557.986 526.246 555.323 525.871 502.577 510.018 499.183 468.988 475.867 489.071 481.662 459.394 452.238 425.989 389.946 363.323 348.107 318.533 300.356 331.091 322.749 312.684 286.469 270.734 282.916 253.674 249.039 240.341 221.997 198.987 191.882 186.83 179.996 166.039 152.595 158.475 156.003 143.598 142.827 139.152 146.861 142.047 138.149 130.371 124.615 129.287 112.035 99.871 94.5671 85.8328 81.2135 66.4378 65.561 61.9356 56.9644 51.6458 43.8878 42.8688 41.8629 39.1476 38.1078 39.2803 37.5684 34.3118 33.1919 30.7216 26.5745 26.0349 24.6156 23.1739 21.7528 19.8655 19.6805 20.7702 21.8451 21.5441 19.5909 19.945 21.2278 23.5017 26.978 10.3478
285.59 0.00025 8081.3 1765.4 2017.35 2050.83 1668.35 1444.39 1340.01 1246.62 1134.4 1049.18 927.27 792.939 719.39 689.259 664.874 647.125 643.938 616.103 558.169 524.929 553.081 524.183 501.69 512.145 499.909 470.146 476.537 485.533 480.402 457.932 453.39 426.084 392.339 363.33 350.006 320.241 301.15 330.858 319.991 313.995 287.66 269.721 282.234 252.374 247.598 240.237 221.688 199.088 191.6 186.46 180.542 166.043 152.305 157.851 155.553 143.074 142.475 138.908 147.013 141.553 137.648 130.325 124.276 128.86 112.243 100.011 94.8984 85.7033 81.4786 66.755 65.1004 62.1871 57.2129 51.9292 44.0481 42.9188 41.8924 39.1812 38.2076 39.147 37.538 34.2641 33.1288 30.7101 26.5873 26.031 24.5868 23.1377 21.7016 19.8482 19.692 20.7612 21.8494 21.5352 19.5919 19.9802 21.2421 23.4899 26.9763 10.3378
285.5925 0.00025 8069.85 1765.39 2006.45 2058.06 1683.83 1437.66 1332.68 1247.1 1135.13 1051.06 925.399 795.112 718.73 690.682 662.485 645.539 638.996 616.636 558.136 524.446 550.371 523.085 501.115 513.597 500.957 471.144 477.353 482.243 479.059 456.244 454.506 426.086 394.74 363.266 351.914 322.061 302.233 330.536 317.324 315.095 288.934 268.839 281.413 251.06 246.284 240.081 221.427 199.238 191.404 186.001 181.139 166.004 152.013 157.23 155.061 142.58 142.109 138.658 147.161 141.055 137.162 130.264 123.975 128.379 112.434 100.129 95.2508 85.6302 81.6533 67.1534 64.6253 62.391 57.4691 52.2089 44.2295 42.9777 41.9226 39.2033 38.3151 39.0189 37.5028 34.2176 33.066 30.6933 26.6079 26.0248 24.5556 23.104 21.6481 19.8312 19.703 20.7525 21.8542 21.5265 19.5914 20.016 21.2571 23.4779 26.9747 10.3279