285.5025 0.00025 1241.57 999.026 1613.29 1888.6 1786.26 1636.16 1485.96 1308.56 1192.76 1073.8 1014 951.629 924.184 845.457 865.244 767.253 682.919 672.804 649.532 603.346 585.664 592.898 578.129 564.555 538.55 541.608 534.421 540.634 535.606 536.033 500.997 503.943 476.411 441.534 411.346 403.54 393.282 415.45 392.632 370.166 351.725 351.176 344.981 324.688 305.137 286.7 261.898 242.512 232.251 231.102 221.305 202.903 194.139 196.47 201.843 199.175 185.217 184.054 173.049 150.019 132.276 128.03 125.732 118.367 101.822 95.1118 89.3289 86.0953 79.845 69.7509 62.8426 59.2526 60.0969 59.7067 59.192 58.9168 55.7281 50.7763 47.9812 45.4658 43.7693 43.9558 41.1841 37.6602 35.0013 34.8753 37.1605 34.891 33.2611 33.8345 35.2979 35.5878 34.5741 32.7612 31.7146 31.3538 33.2549 37.6059 38.0597 12.088
285.505 0.00025 1241.07 1001.93 1613.03 1883.66 1783.84 1631.99 1492.08 1309.95 1190.04 1071.78 1015.91 951.463 925.08 842.787 860.937 769.566 679.35 675.58 652.461 603.394 583.956 591.329 580.604 563.835 540.066 542.846 536.679 540.803 535.59 536.049 500.996 504.612 474.545 440.596 409.764 403.071 392.26 413.427 393.55 371.334 351.135 351.315 344.919 323.025 304.783 285.714 262.235 242.574 231.987 231.633 220.804 202.779 193.801 195.833 202.169 198.739 185.002 184.058 172.415 150.045 132.377 128.051 125.466 118.579 101.919 94.876 89.445 85.8269 79.9965 70.0663 63.0886 59.0028 59.7988 59.6755 59.3241 59.0821 55.8315 50.8168 48.0197 45.4275 43.6438 43.7917 41.2737 37.7136 34.969 34.8416 37.2382 34.9581 33.2017 33.7689 35.2149 35.5757 34.6792 32.8645 31.7049 31.318 33.2631 37.5978 38.0205 12.0688
285.5075 0.00025 1240.21 1004.76 1612.79 1879.05 1780.4 1628.14 1498.26 1311.22 1187.71 1069.09 1018.57 950.965 924.516 841.962 855.198 771.82 676.605 677.613 655.309 603.955 581.774 589.902 583.156 563.293 541.461 543.755 538.968 540.89 535.68 536.288 501.193 505.107 472.71 439.8 408.343 402.341 391.442 411.308 394.35 372.394 350.91 351.243 344.748 321.558 304.503 284.769 262.637 242.533 231.713 232.161 220.249 202.649 193.455 195.212 202.456 198.297 184.876 184.084 171.739 150.067 132.51 128.057 125.216 118.741 102.066 94.6271 89.5549 85.59 80.1097 70.3684 63.361 58.7884 59.4886 59.6294 59.4399 59.2461 55.9391 50.8666 48.0594 45.3903 43.531 43.6216 41.3482 37.7737 34.9385 34.8064 37.3089 35.0333 33.144 33.7037 35.1327 35.5577 34.7806 32.9721 31.6981 31.2818 33.2708 37.5904 37.9818 12.0497
285.51 0.00025 1238.84 1007.37 1612.28 1874.71 1776 1624.41 1504.23 1312.52 1185.98 1065.87 1021.51 950.793 922.096 842.839 848.386 773.737 674.958 678.887 657.947 605.052 579.188 588.687 585.626 563.005 542.726 544.318 541.134 541 535.875 536.763 501.623 505.354 470.963 439.111 407.099 401.356 390.844 409.138 395.025 373.318 351.049 351 344.439 320.28 304.316 283.858 263.094 242.396 231.447 232.665 219.663 202.509 193.088 194.609 202.704 197.843 184.84 184.13 171.027 150.082 132.68 128.043 124.988 118.849 102.263 94.3751 89.647 85.3924 80.1859 70.6541 63.6553 58.6118 59.1695 59.5685 59.5395 59.4065 56.0499 50.9265 48.1 45.3548 43.4298 43.448 41.4068 37.8395 34.911 34.7695 37.3725 35.116 33.0885 33.6387 35.0516 35.5342 34.8778 33.0836 31.6945 31.2453 33.2777 37.5838 37.9436 12.0308
285.5125 0.00025 1236.91 1009.57 1611.28 1870.54 1770.76 1620.61 1509.75 1314 1184.88 1062.52 1024.22 951.325 917.962 844.916 840.961 775.079 674.479 679.572 660.216 606.676 576.326 587.697 587.881 563.008 543.875 544.511 543.039 541.253 536.185 537.467 502.316 505.307 469.342 438.499 406.03 400.149 390.462 406.964 395.567 374.091 351.53 350.635 343.979 319.17 304.243 282.979 263.587 242.172 231.2 233.126 219.066 202.353 192.69 194.022 202.921 197.374 184.893 184.19 170.29 150.084 132.886 128.003 124.786 118.9 102.505 94.1305 89.7105 85.2394 80.2281 70.921 63.9668 58.475 58.8455 59.4923 59.6238 59.5612 56.1629 50.997 48.1416 45.3213 43.3392 43.273 41.4487 37.9095 34.8879 34.731 37.4284 35.2056 33.0359 33.5739 34.972 35.5056 34.9705 33.1986 31.6942 31.2085 33.2839 37.5778 37.9058 12.012
285.515 0.00025 1234.36 1011.31 1609.66 1866.48 1764.84 1616.66 1514.67 1315.75 1184.3 1059.52 1026.37 952.527 912.757 847.406 833.442 775.685 675.055 679.964 661.979 608.747 573.391 586.913 589.796 563.319 544.926 544.328 544.575 541.74 536.626 538.373 503.282 504.944 467.867 437.953 405.123 398.768 390.28 404.839 395.965 374.718 352.31 350.212 343.357 318.2 304.305 282.132 264.102 241.874 230.979 233.531 218.476 202.178 192.253 193.448 203.111 196.889 185.033 184.261 169.538 150.069 133.131 127.935 124.611 118.894 102.786 93.9045 89.7362 85.1339 80.2406 71.167 64.2905 58.3787 58.5211 59.4002 59.694 59.7082 56.2767 51.0787 48.1841 45.2904 43.2582 43.0987 41.4738 37.9821 34.8704 34.691 37.4765 35.3011 32.987 33.509 34.894 35.4722 35.0581 33.3167 31.6974 31.1716 33.2892 37.5724 37.8685 11.9935
285.5175 0.00025 1231.12 1012.46 1607.24 1862.43 1758.42 1612.53 1518.88 1317.82 1184.08 1057.23 1027.88 954.08 907.344 849.454 826.312 775.476 676.456 680.381 663.21 611.062 570.618 586.323 591.251 563.947 545.88 543.793 545.682 542.529 537.223 539.446 504.52 504.272 466.536 437.474 404.353 397.274 390.275 402.815 396.199 375.226 353.326 349.796 342.57 317.337 304.517 281.316 264.614 241.517 230.792 233.869 217.904 201.981 191.774 192.876 203.284 196.386 185.254 184.335 168.782 150.036 133.412 127.839 124.46 118.835 103.098 93.7079 89.7173 85.076 80.2281 71.391 64.6216 58.3226 58.2011 59.2916 59.7519 59.8458 56.3898 51.1717 48.2275 45.2628 43.1856 42.927 41.4822 38.0555 34.8595 34.6497 37.5163 35.402 32.9422 33.4439 34.8178 35.4344 35.1405 33.4375 31.7044 31.1347 33.2938 37.5676 37.8318 11.9752
285.52 0.00025 1227.28 1012.92 1604.05 1858.3 1751.6 1608.23 1522.25 1320.25 1184.09 1055.84 1028.83 955.608 902.43 850.401 819.889 774.445 678.427 681.055 664.037 613.335 568.235 585.947 592.148 564.88 546.714 542.974 546.336 543.654 538.004 540.657 506.007 503.313 465.335 437.066 403.695 395.732 390.414 400.943 396.245 375.659 354.499 349.453 341.624 316.55 304.887 280.536 265.102 241.114 230.644 234.137 217.359 201.76 191.255 192.298 203.444 195.866 185.55 184.408 168.032 149.982 133.728 127.715 124.333 118.726 103.432 93.5506 89.6505 85.0639 80.1961 71.592 64.9556 58.3056 57.8901 59.1659 59.7989 59.9727 56.5005 51.2764 48.272 45.2389 43.1206 42.7593 41.4744 38.1279 34.856 34.6077 37.5474 35.5073 32.9022 33.3785 34.7435 35.3928 35.2174 33.5604 31.7153 31.0979 33.2974 37.5635 37.7955 11.957
285.5225 0.00025 1222.8 1012.6 1600.2 1854.04 1744.41 1603.85 1524.49 1323.15 1184.26 1055.39 1029.32 956.869 898.329 849.973 814.272 772.662 680.762 682.098 664.703 615.277 566.382 585.828 592.454 566.035 547.398 541.975 546.536 545.114 538.992 541.972 507.703 502.108 464.25 436.733 403.131 394.201 390.663 399.266 396.083 376.065 355.744 349.243 340.529 315.814 305.412 279.799 265.546 240.678 230.537 234.33 216.847 201.515 190.701 191.703 203.599 195.334 185.913 184.473 167.298 149.907 134.072 127.568 124.222 118.573 103.778 93.4408 89.5342 85.0929 80.1503 71.7699 65.2888 58.3257 57.5932 59.0227 59.8365 60.088 56.6068 51.3926 48.3177 45.2192 43.0622 42.5969 41.4511 38.1977 34.8606 34.5655 37.5696 35.6161 32.8675 33.3129 34.6714 35.3477 35.2885 33.6851 31.7301 31.0615 33.3002 37.5599 37.7598 11.9391
285.525 0.00025 1217.9 1011.5 1596.09 1849.56 1736.83 1599.52 1525.29 1326.64 1184.61 1055.74 1029.43 957.848 894.937 848.307 809.342 770.262 683.344 683.525 665.454 616.705 565.088 586.023 592.229 567.254 547.913 540.905 546.296 546.893 540.199 543.359 509.554 500.709 463.276 436.473 402.651 392.731 390.983 397.814 395.705 376.492 356.978 349.215 339.304 315.105 306.074 279.112 265.934 240.224 230.471 234.449 216.371 201.244 190.115 191.081 203.75 194.795 186.333 184.526 166.589 149.811 134.441 127.403 124.123 118.382 104.127 93.3845 89.3705 85.1571 80.0966 71.9249 65.6177 58.3801 57.3148 58.8624 59.8658 60.1912 56.7068 51.52 48.3652 45.204 43.0099 42.4408 41.4133 38.263 34.8735 34.5239 37.5826 35.7276 32.8387 33.2469 34.6015 35.2997 35.3536 33.811 31.749 31.0254 33.302 37.5569 37.7246 11.9214
285.5275 0.00025 1212.71 1009.68 1592.18 1844.78 1728.83 1595.33 1524.34 1330.71 1185.28 1056.74 1029.14 958.701 891.928 845.848 804.832 767.395 686.135 685.288 666.442 617.615 564.257 586.565 591.622 568.333 548.26 539.873 545.642 548.961 541.621 544.791 511.495 499.163 462.415 436.275 402.256 391.365 391.337 396.604 395.121 376.959 358.136 349.399 337.979 314.409 306.845 278.483 266.254 239.763 230.444 234.493 215.928 200.947 189.506 190.426 203.895 194.256 186.799 184.559 165.912 149.698 134.828 127.226 124.031 118.159 104.471 93.3859 89.1635 85.2494 80.0408 72.0573 65.9395 58.4658 57.0586 58.6856 59.8877 60.2824 56.7985 51.6581 48.4148 45.1936 42.963 42.2917 41.3622 38.3225 34.8948 34.4839 37.586 35.8409 32.8161 33.1807 34.5338 35.2492 35.4126 33.9375 31.7721 30.99 33.3029 37.5544 37.6899 11.9039
285.53 0.00025 1207.37 1007.13 1588.86 1839.6 1720.57 1591.28 1521.53 1335.16 1186.48 1058.25 1028.41 959.606 888.99 843.107 800.464 764.167 689.169 687.321 667.691 618.164 563.732 587.434 590.827 569.074 548.445 538.965 544.609 551.281 543.231 546.246 513.458 497.522 461.685 436.114 401.958 390.132 391.692 395.632 394.369 377.462 359.175 349.8 336.594 313.713 307.688 277.916 266.498 239.306 230.458 234.462 215.516 200.626 188.881 189.734 204.028 193.73 187.299 184.569 165.271 149.568 135.228 127.044 123.94 117.91 104.804 93.4466 88.9194 85.3617 79.9887 72.1675 66.2516 58.5795 56.828 58.4937 59.9027 60.3619 56.8801 51.806 48.4672 45.188 42.9212 42.1499 41.2991 38.3745 34.9242 34.4465 37.5796 35.9548 32.8003 33.1142 34.4683 35.1966 35.4654 34.0643 31.7993 30.9553 33.3027 37.5524 37.6558 11.8866
285.5325 0.00025 1202.04 1003.92 1586.31 1833.94 1712.23 1587.37 1517.05 1339.61 1188.4 1060.2 1027.21 960.695 885.988 840.442 796.13 760.612 692.491 689.58 669.137 618.586 563.379 588.544 590.031 569.346 548.466 538.247 543.243 553.809 544.99 547.705 515.372 495.833 461.11 435.964 401.771 389.062 392.02 394.869 393.511 377.97 360.08 350.399 335.202 313.013 308.556 277.419 266.661 238.86 230.511 234.357 215.129 200.283 188.246 189.007 204.138 193.229 187.82 184.552 164.671 149.427 135.636 126.861 123.845 117.639 105.119 93.5658 88.646 85.4857 79.9457 72.2563 66.5521 58.718 56.6253 58.2887 59.9109 60.4304 56.9497 51.9626 48.5232 45.1871 42.8842 42.0159 41.2253 38.4181 34.9612 34.4128 37.5635 36.0685 32.7915 33.0476 34.405 35.1425 35.512 34.1907 31.8308 30.9216 33.3016 37.5508 37.6222 11.8696
285.535 0.00025 1196.83 1000.2 1584.74 1827.8 1704 1583.58 1511.36 1343.65 1191.19 1062.57 1025.6 961.965 883 837.95 791.924 756.732 696.089 692.059 670.691 619.084 563.145 589.743 589.355 569.141 548.286 537.751 541.598 556.485 546.858 549.164 517.17 494.15 460.712 435.803 401.708 388.174 392.305 394.272 392.629 378.432 360.851 351.158 333.857 312.312 309.399 276.997 266.741 238.438 230.602 234.177 214.763 199.921 187.605 188.251 204.212 192.768 188.347 184.507 164.115 149.279 136.047 126.683 123.742 117.349 105.414 93.7409 88.3525 85.6132 79.9165 72.3243 66.8389 58.878 56.4521 58.0729 59.9122 60.4885 57.006 52.1263 48.5835 45.191 42.8521 41.8897 41.1424 38.4521 35.0052 34.3839 37.5376 36.1808 32.7901 32.981 34.3439 35.0871 35.5523 34.3163 31.8664 30.889 33.2995 37.5496 37.5892 11.8528
285.5375 0.00025 1191.96 996.13 1584.01 1821.29 1696.01 1579.9 1505 1346.94 1194.8 1065.37 1023.67 963.285 880.229 835.537 788.08 752.55 699.807 694.815 672.28 619.741 563.081 590.865 588.818 568.572 547.855 537.479 539.756 559.24 548.803 550.61 518.788 492.523 460.498 435.623 401.774 387.481 392.534 393.78 391.807 378.796 361.503 352.027 332.617 311.618 310.163 276.65 266.735 238.053 230.727 233.922 214.41 199.545 186.96 187.476 204.233 192.361 188.868 184.433 163.601 149.129 136.457 126.514 123.629 117.044 105.687 93.9677 88.0483 85.7364 79.905 72.3725 67.11 59.0565 56.309 57.8493 59.9064 60.5375 57.0479 52.2953 48.6491 45.1993 42.8248 41.7712 41.0518 38.4756 35.0552 34.3607 37.5021 36.2906 32.7964 32.9146 34.2849 35.0311 35.5865 34.4406 31.9062 30.8577 33.2964 37.5488 37.5567 11.8362
285.54 0.00025 1187.51 991.846 1583.71 1814.59 1688.24 1576.37 1498.46 1349.36 1198.96 1068.67 1021.57 964.418 877.881 833.081 784.826 748.189 703.349 697.966 673.86 620.534 563.329 591.796 588.324 567.834 547.139 537.37 537.816 561.986 550.812 552.041 520.178 491.005 460.455 435.431 401.963 386.993 392.703 393.333 391.119 379.022 362.052 352.951 331.532 310.944 310.798 276.385 266.641 237.717 230.883 233.595 214.064 199.16 186.312 186.696 204.182 192.023 189.369 184.334 163.126 148.981 136.866 126.359 123.502 116.725 105.938 94.2403 87.7433 85.8483 79.9147 72.4023 67.3635 59.2508 56.1961 57.6211 59.8928 60.5784 57.0747 52.4675 48.7207 45.2118 42.8023 41.6602 40.9551 38.488 35.1104 34.3441 37.4575 36.3967 32.8105 32.8485 34.2279 34.9746 35.6146 34.5631 31.95 30.8278 33.2922 37.5483 37.5247 11.8199
285.5425 0.00025 1183.46 987.49 1583.61 1807.98 1680.66 1573.09 1492.15 1350.94 1203.28 1072.55 1019.41 965.138 876.04 830.579 782.268 743.913 706.319 701.64 675.422 621.353 564.044 592.48 587.704 567.144 546.165 537.301 535.904 564.62 552.887 553.451 521.304 489.648 460.549 435.257 402.26 386.715 392.817 392.88 390.618 379.095 362.515 353.875 330.639 310.31 311.259 276.206 266.454 237.447 231.061 233.2 213.718 198.771 185.658 185.925 204.044 191.763 189.837 184.215 162.685 148.842 137.274 126.217 123.361 116.394 106.168 94.5518 87.4465 85.9425 79.9481 72.4152 67.5976 59.4588 56.1127 57.3914 59.8712 60.6124 57.0861 52.6403 48.7992 45.2282 42.7849 41.5566 40.8535 38.4888 35.1697 34.3349 37.4043 36.4981 32.8326 32.7831 34.1728 34.9181 35.6366 34.6834 31.9978 30.7996 33.2871 37.548 37.4933 11.8039
285.545 0.00025 1179.94 983.092 1583.43 1801.65 1673.19 1570.19 1486.33 1351.81 1207.21 1077.14 1017.31 965.26 874.637 828.15 780.332 740.061 708.362 705.908 676.988 622.056 565.355 592.923 586.776 566.66 545.05 537.091 534.162 567.037 555.028 554.834 522.144 488.5 460.734 435.148 402.641 386.647 392.88 392.383 390.331 379.022 362.898 354.748 329.964 309.745 311.509 276.115 266.17 237.255 231.254 232.742 213.368 198.385 184.994 185.178 203.807 191.589 190.262 184.083 162.271 148.715 137.679 126.093 123.205 116.055 106.376 94.8949 87.1666 86.0141 80.0067 72.4136 67.8105 59.6784 56.0573 57.164 59.8411 60.6404 57.082 52.8114 48.8852 45.2483 42.7726 41.4601 40.7486 38.4777 35.2321 34.3336 37.3433 36.5936 32.8628 32.7185 34.1196 34.8619 35.6529 34.8011 32.0494 30.7732 33.2811 37.548 37.4624 11.7881
285.5475 0.00025 1176.99 978.757 1583.04 1795.79 1665.76 1567.76 1481.11 1352.12 1210.21 1082.52 1015.35 964.684 873.493 825.984 778.832 736.944 709.279 710.696 678.617 622.51 567.32 593.17 585.419 566.438 544.004 536.525 532.72 569.137 557.243 556.181 522.694 487.599 460.958 435.158 403.079 386.785 392.898 391.821 390.258 378.836 363.204 355.528 329.52 309.27 311.523 276.108 265.793 237.156 231.451 232.229 213.007 198.011 184.319 184.466 203.463 191.502 190.635 183.947 161.876 148.605 138.082 125.988 123.033 115.709 106.565 95.2625 86.9111 86.0598 80.0908 72.3998 68.0003 59.908 56.0281 56.942 59.8023 60.6634 57.0629 52.9782 48.9793 45.2719 42.7654 41.3704 40.6416 38.4545 35.2966 34.3405 37.2753 36.6819 32.9008 32.6551 34.0681 34.8063 35.6635 34.9157 32.1046 30.7488 33.2741 37.5482 37.4319 11.7726
285.55 0.00025 1174.6 974.38 1582.23 1790.54 1658.38 1565.82 1476.54 1351.99 1211.83 1088.68 1013.63 963.36 872.415 824.251 777.593 734.741 709.113 715.774 680.41 622.633 569.918 593.267 583.617 566.426 543.285 535.406 531.653 570.869 559.526 557.48 522.957 486.97 461.175 435.338 403.548 387.117 392.884 391.185 390.375 378.581 363.433 356.182 329.306 308.911 311.292 276.178 265.325 237.16 231.643 231.67 212.631 197.652 183.63 183.799 203.011 191.499 190.95 183.815 161.492 148.513 138.485 125.903 122.842 115.361 106.735 95.6476 86.6864 86.0773 80.1999 72.3767 68.1654 60.1461 56.0227 56.729 59.7543 60.6825 57.0297 53.1381 49.0818 45.2987 42.7634 41.2873 40.5337 38.4192 35.3621 34.3559 37.2015 36.7621 32.9467 32.5932 34.0182 34.7516 35.6687 35.0268 32.1632 30.7266 33.2663 37.5485 37.402 11.7573
285.5525 0.00025 1172.72 970.046 1581.05 1786.06 1651.11 1564.31 1472.58 1351.49 1211.84 1095.41 1012.31 961.288 871.248 823.043 776.525 733.463 708.113 720.788 682.488 622.407 573.049 593.244 581.471 566.493 543.139 533.61 530.958 572.23 561.858 558.706 522.954 486.628 461.353 435.723 404.034 387.622 392.851 390.485 390.641 378.307 363.582 356.688 329.315 308.684 310.821 276.308 264.775 237.273 231.818 231.074 212.24 197.309 182.928 183.181 202.456 191.571 191.207 183.696 161.111 148.439 138.888 125.842 122.63 115.014 106.884 96.0441 86.4976 86.0659 80.3327 72.3474 68.3041 60.3911 56.0385 56.5283 59.6973 60.6984 56.9833 53.2884 49.1929 45.3289 42.7667 41.2108 40.4258 38.372 35.4276 34.3796 37.1229 36.8332 33.0002 32.5332 33.9698 34.698 35.6688 35.1342 32.2251 30.7066 33.2577 37.5489 37.3726 11.7424
285.555 0.00025 1171.35 965.726 1579.5 1782.33 1644.05 1563.12 1469.19 1350.69 1210.33 1102.27 1011.64 958.517 869.901 822.351 775.637 732.998 706.65 725.356 684.962 621.883 576.558 593.108 579.155 566.497 543.728 531.138 530.515 573.271 564.213 559.821 522.723 486.563 461.482 436.331 404.536 388.272 392.813 389.733 391.009 378.068 363.644 357.033 329.527 308.594 310.128 276.475 264.158 237.498 231.967 230.449 211.832 196.984 182.215 182.613 201.81 191.706 191.407 183.597 160.729 148.382 139.293 125.81 122.392 114.675 107.014 96.4467 86.3477 86.0265 80.4872 72.3155 68.4152 60.641 56.0723 56.3427 59.6314 60.7119 56.9248 53.427 49.3123 45.3624 42.7749 41.1406 40.319 38.3132 35.4922 34.4116 37.0408 36.8942 33.0608 32.4755 33.9227 34.6456 35.6639 35.2375 32.2901 30.6891 33.2483 37.5492 37.3436 11.7277
285.5575 0.00025 1170.4 961.438 1577.6 1779.29 1637.22 1562.11 1466.35 1349.63 1207.51 1108.72 1011.86 955.17 868.33 822.057 775.006 733.211 705.089 729.152 687.874 621.181 580.237 592.859 576.865 566.352 545.076 528.134 530.123 574.1 566.553 560.773 522.316 486.745 461.574 437.15 405.069 389.037 392.778 388.95 391.424 377.907 363.61 357.218 329.921 308.642 309.249 276.648 263.493 237.832 232.083 229.801 211.412 196.673 181.498 182.09 201.086 191.885 191.555 183.522 160.342 148.336 139.699 125.816 122.123 114.348 107.12 96.8507 86.2387 85.9618 80.6605 72.2843 68.4981 60.894 56.1216 56.1749 59.5572 60.7234 56.8558 53.5518 49.4396 45.3995 42.7879 41.0768 40.2139 38.2435 35.5549 34.4515 36.9564 36.9445 33.128 32.4205 33.8769 34.5947 35.6545 35.3364 32.3577 30.6741 33.2383 37.5496 37.3151 11.7133
285.56 0.00025 1169.94 957.183 1575.42 1776.68 1630.78 1561.11 1464.02 1348.35 1203.77 1114.22 1013.12 951.435 866.559 821.972 774.712 733.98 703.712 731.969 691.181 620.474 583.869 592.487 574.778 566.051 547.07 524.856 529.539 574.833 568.846 561.501 521.801 487.124 461.669 438.15 405.657 389.885 392.751 388.162 391.837 377.866 363.474 357.253 330.472 308.815 308.227 276.796 262.799 238.273 232.161 229.136 210.985 196.371 180.785 181.606 200.305 192.092 191.656 183.473 159.95 148.296 140.106 125.865 121.818 114.042 107.203 97.2535 86.1707 85.8747 80.8489 72.2578 68.5521 61.1474 56.1838 56.0272 59.4752 60.7333 56.7778 53.6609 49.574 45.4403 42.8054 41.0193 40.1113 38.1634 35.6146 34.499 36.8708 36.9835 33.2013 32.3686 33.8323 34.5454 35.6407 35.4307 32.4279 30.6617 33.2276 37.5499 37.287 11.6991
285.5625 0.00025 1169.88 953 1573.02 1774.31 1624.92 1559.9 1462.13 1346.88 1199.54 1118.35 1015.43 947.538 864.664 821.87 774.803 735.195 702.71 733.736 694.755 619.963 587.252 591.975 573.036 565.653 549.498 521.613 528.552 575.552 571.096 561.921 521.249 487.633 461.824 439.28 406.333 390.788 392.736 387.403 392.197 377.971 363.23 357.153 331.151 309.095 307.11 276.889 262.095 238.811 232.199 228.456 210.556 196.07 180.087 181.153 199.485 192.307 191.72 183.451 159.556 148.251 140.513 125.966 121.472 113.761 107.257 97.6522 86.1429 85.7704 81.0482 72.2396 68.5774 61.3983 56.2566 55.901 59.3865 60.7417 56.6925 53.7531 49.7143 45.4853 42.8269 40.9681 40.0115 38.0739 35.6705 34.5536 36.7852 37.0107 33.2798 32.3204 33.7887 34.4977 35.6229 35.5202 32.5003 30.6522 33.2165 37.5501 37.2593 11.6852
285.565 0.00025 1170.23 948.892 1570.37 1772.1 1619.93 1558.28 1460.63 1345.16 1195.22 1120.89 1018.67 943.71 862.765 821.526 775.272 736.739 702.229 734.508 698.391 619.84 590.223 591.295 571.764 565.236 552.133 518.679 527.038 576.282 573.332 561.959 520.718 488.202 462.109 440.485 407.135 391.716 392.735 386.702 392.464 378.233 362.876 356.941 331.933 309.466 305.942 276.9 261.395 239.437 232.2 227.763 210.133 195.76 179.413 180.723 198.645 192.514 191.753 183.453 159.164 148.193 140.921 126.126 121.083 113.51 107.281 98.045 86.1534 85.6543 81.2541 72.2333 68.5743 61.6438 56.3386 55.7973 59.2924 60.7488 56.6016 53.8272 49.8593 45.5349 42.852 40.9234 39.9151 37.9758 35.7215 34.6148 36.7006 37.0262 33.3625 32.2763 33.7461 34.4518 35.6014 35.6046 32.5746 30.6454 33.205 37.55 37.232 11.6716
285.5675 0.00025 1171.04 944.933 1567.57 1770.1 1616.1 1556.05 1459.42 1343.15 1191.2 1121.79 1022.6 940.161 860.989 820.758 776.075 738.446 702.379 734.428 701.831 620.268 592.671 590.409 571.066 564.846 554.785 516.239 524.996 576.978 575.619 561.551 520.257 488.771 462.586 441.714 408.1 392.644 392.755 386.085 392.609 378.645 362.419 356.634 332.787 309.905 304.762 276.814 260.713 240.139 232.169 227.059 209.724 195.428 178.776 180.307 197.803 192.698 191.763 183.474 158.784 148.112 141.326 126.351 120.649 113.292 107.271 98.4311 86.1995 85.5326 81.4614 72.2422 68.5444 61.8804 56.4285 55.7161 59.1948 60.7544 56.5067 53.8828 50.0073 45.5894 42.8803 40.8853 39.8223 37.8704 35.7666 34.6821 36.6178 37.0298 33.4486 32.2367 33.7044 34.4077 35.5765 35.6839 32.6506 30.6416 33.1931 37.5498 37.2051 11.6583
285.57 0.00025 1172.22 941.249 1564.73 1768.49 1613.64 1553.12 1458.34 1340.89 1187.63 1121.21 1026.94 937.067 859.424 819.488 777.155 740.093 703.254 733.716 704.768 621.359 594.52 589.281 571.023 564.499 557.319 514.365 522.546 577.548 578.015 560.673 519.876 489.306 463.299 442.928 409.264 393.551 392.811 385.568 392.615 379.182 361.876 356.25 333.687 310.392 303.602 276.625 260.052 240.898 232.12 226.342 209.337 195.064 178.186 179.898 196.971 192.849 191.754 183.508 158.425 148 141.727 126.644 120.174 113.109 107.228 98.8087 86.2782 85.4124 81.6655 72.2691 68.4899 62.1038 56.5258 55.6569 59.0954 60.758 56.4095 53.9196 50.1563 45.6493 42.9112 40.8538 39.7333 37.7587 35.8048 34.7551 36.5378 37.0218 33.537 32.202 33.6636 34.3655 35.5485 35.7579 32.7279 30.6406 33.181 37.5493 37.1786 11.6452
285.5725 0.00025 1173.74 938.015 1561.97 1767.61 1612.58 1549.5 1457.18 1338.52 1184.45 1119.4 1031.37 934.551 858.089 817.723 778.48 741.454 704.9 732.639 706.905 623.149 595.756 587.891 571.674 564.213 559.631 513.048 519.88 577.891 580.542 559.355 519.563 489.797 464.259 444.114 410.656 394.424 392.918 385.162 392.475 379.802 361.272 355.801 334.603 310.905 302.483 276.336 259.414 241.695 232.064 225.615 208.98 194.655 177.654 179.49 196.159 192.961 191.731 183.547 158.098 147.849 142.122 127.007 119.663 112.956 107.15 99.1763 86.3859 85.2994 81.8623 72.3163 68.4138 62.3099 56.6301 55.6183 58.9966 60.7595 56.3116 53.9377 50.3046 45.7149 42.9442 40.8289 39.6481 37.6422 35.8353 34.8333 36.461 37.0027 33.6265 32.1728 33.6236 34.3251 35.5177 35.8266 32.8063 30.6427 33.1688 37.5485 37.1524 11.6325
285.575 0.00025 1175.55 935.355 1559.4 1767.81 1612.91 1545.35 1455.68 1336.13 1181.39 1116.71 1035.52 932.665 856.962 815.573 780.022 742.348 707.283 731.479 707.998 625.58 596.421 586.257 573.011 564.021 561.609 512.242 517.211 577.939 583.165 557.681 519.274 490.268 465.442 445.272 412.298 395.26 393.095 384.87 392.198 380.454 360.636 355.295 335.51 311.429 301.416 275.965 258.797 242.507 232.017 224.879 208.657 194.192 177.186 179.081 195.374 193.031 191.692 183.582 157.811 147.655 142.505 127.435 119.128 112.832 107.039 99.5313 86.5197 85.2 82.0478 72.3849 68.3204 62.4935 56.7413 55.5982 58.9006 60.7582 56.2146 53.9378 50.4501 45.7865 42.9791 40.8109 39.567 37.5221 35.8572 34.916 36.388 36.9729 33.7159 32.1493 33.5845 34.2865 35.4844 35.8898 32.8855 30.6476 33.1566 37.5473 37.1265 11.62
285.5775 0.00025 1177.64 933.438 1557.16 1769.2 1614.52 1540.87 1453.59 1333.76 1178.22 1113.49 1039.04 931.4 855.989 813.201 781.731 742.683 710.297 730.493 707.894 628.496 596.62 584.419 574.967 564.007 563.121 511.903 514.715 577.676 585.782 555.783 518.951 490.761 466.795 446.426 414.201 396.074 393.361 384.69 391.8 381.083 359.995 354.738 336.381 311.952 300.404 275.534 258.195 243.308 231.998 224.136 208.373 193.665 176.79 178.666 194.619 193.064 191.636 183.608 157.577 147.419 142.87 127.926 118.581 112.727 106.898 99.8706 86.6771 85.1191 82.2192 72.475 68.2145 62.6505 56.8594 55.5945 58.8099 60.7537 56.1198 53.9206 50.5907 45.8642 43.0153 40.7995 39.4899 37.3997 35.8697 35.0027 36.3193 36.9333 33.8042 32.1318 33.5464 34.2497 35.4488 35.9477 32.9652 30.6556 33.1445 37.5458 37.101 11.6077
285.58 0.00025 1179.93 932.394 1555.43 1771.69 1617.3 1536.24 1450.78 1331.3 1174.93 1110 1041.59 930.686 855.097 810.794 783.533 742.48 713.768 729.878 706.563 631.64 596.502 582.434 577.429 564.282 564.02 512.004 512.514 577.137 588.243 553.808 518.541 491.329 468.249 447.604 416.358 396.9 393.727 384.614 391.297 381.637 359.374 354.135 337.192 312.462 299.443 275.07 257.604 244.07 232.021 223.392 208.13 193.063 176.469 178.245 193.894 193.064 191.558 183.617 157.405 147.144 143.208 128.47 118.04 112.635 106.731 100.19 86.8549 85.061 82.3742 72.5858 68.1018 62.7769 56.9842 55.6047 58.7268 60.7457 56.0284 53.8873 50.7245 45.948 43.0527 40.7949 39.4167 37.2764 35.8722 35.0928 36.2552 36.8844 33.8901 32.1206 33.5091 34.2146 35.4113 36 33.0451 30.6664 33.1327 37.5439 37.0757 11.5957
285.5825 0.00025 1182.45 932.254 1554.35 1775.07 1621.17 1531.57 1447.19 1328.6 1171.71 1106.37 1042.93 930.415 854.218 808.529 785.344 741.845 717.486 729.744 704.085 634.704 596.233 580.371 580.259 564.979 564.181 512.519 510.682 576.373 590.392 551.897 518.01 492.016 469.722 448.833 418.742 397.794 394.193 384.633 390.707 382.072 358.793 353.494 337.924 312.95 298.526 274.6 257.021 244.765 232.103 222.654 207.93 192.381 176.224 177.819 193.198 193.039 191.453 183.603 157.301 146.837 143.511 129.059 117.524 112.544 106.544 100.487 87.0511 85.0293 82.5121 72.716 67.988 62.8692 57.1149 55.6263 58.6534 60.7336 55.9415 53.8392 50.8498 46.0376 43.0912 40.7967 39.3476 37.1533 35.8643 35.1856 36.1961 36.827 33.9728 32.1158 33.4729 34.1812 35.372 36.047 33.125 30.6802 33.1211 37.5415 37.0507 11.584
285.585 0.00025 1185.19 933.011 1553.94 1778.98 1626 1526.96 1442.84 1325.39 1168.96 1102.65 1042.92 930.462 853.297 806.568 787.046 740.954 721.209 730.127 700.645 637.376 595.963 578.306 583.289 566.22 563.535 513.404 509.273 575.429 592.1 550.158 517.357 492.843 471.15 450.133 421.309 398.831 394.75 384.739 390.048 382.347 358.272 352.818 338.554 313.408 297.648 274.147 256.449 245.365 232.252 221.93 207.772 191.617 176.053 177.39 192.528 192.998 191.313 183.562 157.269 146.507 143.77 129.679 117.052 112.446 106.344 100.754 87.2636 85.0265 82.6329 72.863 67.8789 62.9249 57.2506 55.6569 58.5914 60.7173 55.86 53.7778 50.9647 46.1327 43.1306 40.8049 39.2824 37.0316 35.8457 35.2803 36.1421 36.762 34.0511 32.1174 33.4379 34.1493 35.3313 36.0886 33.2045 30.6968 33.1099 37.5387 37.026 11.5725
285.5875 0.00025 1188.06 934.614 1554.08 1783.05 1631.53 1522.41 1437.78 1321.4 1167.01 1098.8 1041.57 930.687 852.276 805.03 788.494 740.021 724.682 731.018 696.492 639.398 595.77 576.313 586.35 568.077 562.105 514.571 508.364 574.326 593.278 548.665 516.624 493.804 472.482 451.516 423.999 400.097 395.381 384.924 389.34 382.433 357.829 352.115 339.069 313.831 296.809 273.729 255.889 245.849 232.477 221.231 207.654 190.769 175.949 176.961 191.88 192.949 191.134 183.49 157.312 146.166 143.973 130.321 116.642 112.332 106.137 100.987 87.4904 85.0537 82.738 73.0231 67.7802 62.943 57.3895 55.6941 58.5422 60.6968 55.7844 53.705 51.0679 46.2328 43.1709 40.8191 39.2211 36.9124 35.8164 35.3758 36.0937 36.6901 34.1243 32.1254 33.4041 34.119 35.2893 36.1249 33.2835 30.7161 33.0992 37.5355 37.0014 11.5613
285.59 0.00025 1191.03 937.012 1554.69 1787.02 1637.35 1517.97 1432.06 1316.45 1166.11 1094.81 1038.98 930.94 851.13 804.008 789.531 739.243 727.649 732.369 691.922 640.594 595.648 574.464 589.296 570.563 560.016 515.897 508.048 573.06 593.876 547.438 515.892 494.874 473.683 452.98 426.738 401.676 396.066 385.185 388.598 382.319 357.477 351.394 339.454 314.211 296.009 273.357 255.35 246.197 232.778 220.569 207.57 189.842 175.902 176.541 191.249 192.898 190.91 183.387 157.429 145.828 144.114 130.97 116.312 112.198 105.928 101.18 87.7305 85.1114 82.8293 73.1928 67.697 62.9237 57.5295 55.7361 58.507 60.6723 55.7151 53.6225 51.1579 46.337 43.2122 40.8391 39.1637 36.7965 35.7765 35.4713 36.051 36.6119 34.1918 32.1395 33.3718 34.0902 35.2463 36.1561 33.3617 30.7381 33.0892 37.5318 36.9771 11.5503
285.5925 0.00025 1194.15 940.217 1555.61 1790.74 1643.02 1513.69 1425.72 1310.5 1166.27 1090.77 1035.33 931.061 849.883 803.532 790.024 738.799 729.883 734.086 687.24 640.887 595.505 572.816 592.022 573.599 557.505 517.205 508.406 571.618 593.885 546.463 515.264 496.024 474.737 454.512 429.453 403.636 396.791 385.523 387.829 382.004 357.221 350.672 339.697 314.542 295.258 273.038 254.841 246.399 233.149 219.958 207.516 188.844 175.893 176.135 190.631 192.851 190.638 183.253 157.616 145.507 144.184 131.613 116.074 112.039 105.722 101.327 87.9821 85.1994 82.91 73.3683 67.6341 62.8688 57.6673 55.7815 58.4862 60.6443 55.6523 53.5322 51.2339 46.4445 43.2548 40.8644 39.1101 36.6848 35.7265 35.5655 36.0145 36.5281 34.253 32.1596 33.3412 34.0627 35.2024 36.1821 33.4389 30.7627 33.0798 37.5276 36.9529 11.5395