285.5025 0.00025 645.985 1637.73 2542.76 2125.13 2047.28 1766.31 1570.41 1426.16 1202.86 1024.57 941.922 900.625 814.647 794.511 730.578 686.14 629.678 589.332 579.413 557.094 525.506 510.994 493.852 469.545 451.007 452.538 436.689 423.365 427.941 411.167 414.242 398.161 386.078 365.347 356.549 344.269 337.887 328.387 320.459 301.912 295.298 302.624 293.148 281.99 277.094 258.074 240.775 221.99 203.794 190.364 176.268 170.089 158.71 153.45 157.227 161.083 157.516 153.965 149.722 140.183 136.178 130.966 119.845 107.763 102.343 94.4665 87.3347 81.3193 68.956 59.2724 53.9305 50.653 48.4716 46.6715 44.1513 42.0343 41.5021 40.8791 38.2193 35.2793 33.8063 31.4888 28.9978 26.6855 25.6204 24.1899 23.1982 22.479 21.9249 20.8489 20.4136 20.2967 19.446 17.8855 16.4218 15.9801 15.9076 15.6994 14.8937 15.1236
285.505 0.00025 647.611 1640.97 2538.81 2120.1 2049.14 1765.74 1568.62 1427.49 1206.91 1026.88 938.322 901.456 812.404 792.702 729.548 682.635 631.414 589.991 581.456 559.208 525.941 512.348 495.047 469.822 451.723 452.098 437.416 426.138 428.411 410.754 414.987 397.455 385.128 364.801 355.303 343.233 337.537 329.304 320.689 301.647 294.638 303.07 292.518 281.206 275.911 257.93 240.9 222.311 204.084 190.791 176.523 169.851 158.238 153.243 157.029 160.622 157.017 153.64 149.591 139.887 135.928 131.056 120.087 107.659 102.2 94.5314 87.3085 81.4954 69.3209 59.4178 53.9856 50.6417 48.4163 46.6567 44.1197 42.0045 41.4675 40.8866 38.246 35.2846 33.8326 31.526 28.9865 26.6805 25.6273 24.1708 23.1813 22.4878 21.9256 20.8227 20.379 20.2779 19.4439 17.8844 16.4124 15.9663 15.894 15.6804 14.8713 15.1086
285.5075 0.00025 649.217 1644.22 2534.59 2115.43 2049.9 1766.06 1567.45 1428.11 1210.58 1029.36 934.644 901.5 810.605 790.372 728.728 678.963 632.645 590.824 583.551 560.904 526.525 513.783 496.151 470.143 452.47 451.489 438.013 429.22 428.815 410.487 415.64 396.858 384.135 364.235 354.075 342.306 337.118 330.2 320.942 301.354 294.061 303.521 291.867 280.372 274.641 257.818 241.012 222.619 204.338 191.165 176.788 169.589 157.773 153.059 156.81 160.204 156.52 153.341 149.429 139.606 135.687 131.084 120.309 107.57 102.067 94.5835 87.3062 81.6335 69.6917 59.572 54.0432 50.6369 48.3632 46.6404 44.0943 41.9728 41.4292 40.8872 38.2713 35.292 33.8517 31.5633 28.9797 26.6773 25.6334 24.1527 23.1636 22.4965 21.9264 20.7975 20.3446 20.2581 19.4411 17.8834 16.4034 15.9527 15.8801 15.6614 14.849 15.0938
285.51 0.00025 650.744 1647.31 2530.2 2111.27 2049.41 1766.86 1567.03 1427.92 1213.82 1031.87 931.205 900.564 809.128 787.543 728.087 675.297 633.307 591.783 585.723 562.11 527.23 515.335 497.197 470.564 453.168 450.78 438.491 432.475 429.2 410.44 416.16 396.398 383.098 363.64 352.869 341.485 336.651 331.036 321.216 301.028 293.58 303.951 291.21 279.486 273.278 257.744 241.111 222.912 204.556 191.491 177.064 169.304 157.317 152.898 156.571 159.822 156.031 153.065 149.234 139.339 135.455 131.055 120.503 107.49 101.948 94.6228 87.3279 81.7345 70.0649 59.7367 54.1029 50.6382 48.3123 46.6217 44.0763 41.9394 41.3878 40.8808 38.2949 35.3019 33.8637 31.5999 28.9772 26.6763 25.6384 24.1358 23.1452 22.5049 21.9272 20.7731 20.3102 20.2373 19.4375 17.8824 16.3947 15.9391 15.866 15.6425 14.8267 15.0792
285.5125 0.00025 652.159 1650.04 2525.56 2107.8 2047.49 1767.69 1567.36 1426.98 1216.52 1034.21 928.162 898.692 807.731 784.285 727.556 671.774 633.4 592.784 587.941 562.825 527.997 517.027 498.228 471.145 453.737 450.03 438.898 435.746 429.617 410.685 416.503 396.103 382.021 363.004 351.692 340.761 336.16 331.777 321.503 300.666 293.207 304.34 290.558 278.55 271.82 257.709 241.201 223.188 204.739 191.778 177.347 168.998 156.867 152.759 156.319 159.465 155.558 152.805 149.008 139.085 135.234 130.976 120.664 107.419 101.841 94.651 87.3717 81.801 70.436 59.9138 54.1646 50.6457 48.2636 46.6 44.0668 41.9045 41.3437 40.8673 38.3162 35.3148 33.869 31.6351 28.9786 26.6778 25.6423 24.1204 23.1261 22.5129 21.9281 20.7498 20.2761 20.2155 19.4332 17.8814 16.3863 15.9257 15.8517 15.6237 14.8045 15.0649
285.515 0.00025 653.442 1652.28 2520.61 2105.04 2044.01 1768.07 1568.27 1425.42 1218.63 1036.25 925.49 896.131 806.139 780.696 727.064 668.494 632.997 593.744 590.118 563.12 528.757 518.854 499.302 471.931 454.107 449.278 439.306 438.875 430.108 411.258 416.647 395.992 380.913 362.312 350.554 340.116 335.678 332.399 321.788 300.274 292.946 304.673 289.922 277.573 270.262 257.708 241.285 223.446 204.889 192.03 177.632 168.676 156.422 152.641 156.059 159.122 155.107 152.556 148.752 138.845 135.022 130.856 120.786 107.351 101.748 94.671 87.4342 81.8367 70.8 60.1051 54.228 50.6591 48.2168 46.5747 44.0663 41.8687 41.2969 40.8469 38.3346 35.3312 33.8682 31.6681 28.9834 26.6822 25.6448 24.1065 23.1066 22.5206 21.9288 20.7275 20.2421 20.1928 19.4281 17.8805 16.3781 15.9124 15.837 15.605 14.7822 15.0507
285.5175 0.00025 654.59 1653.85 2515.06 2102.83 2038.99 1767.56 1569.39 1423.5 1220.13 1037.93 923.022 893.204 804.141 776.863 726.55 665.512 632.234 594.617 592.09 563.118 529.44 520.786 500.483 472.956 454.23 448.546 439.799 441.729 430.708 412.158 416.594 396.077 379.791 361.55 349.458 339.541 335.234 332.883 322.046 299.863 292.794 304.942 289.307 276.564 268.604 257.73 241.367 223.686 205.011 192.252 177.914 168.341 155.979 152.54 155.798 158.78 154.684 152.313 148.47 138.617 134.818 130.702 120.868 107.285 101.664 94.687 87.5105 81.8461 71.1513 60.3122 54.2931 50.6789 48.1717 46.5454 44.075 41.8329 41.2475 40.8197 38.3495 35.351 33.862 31.6982 28.9911 26.6897 25.646 24.0943 23.0867 22.5276 21.9292 20.7063 20.2084 20.1693 19.4221 17.8797 16.3703 15.8991 15.8221 15.5865 14.76 15.0367
285.52 0.00025 655.621 1654.51 2508.87 2101.09 2032.54 1765.9 1570.35 1421.48 1221 1039.27 920.558 890.154 801.692 772.812 725.978 662.845 631.269 595.412 593.651 562.962 529.998 522.769 501.838 474.229 454.097 447.834 440.462 444.204 431.446 413.333 416.389 396.353 378.671 360.702 348.406 339.027 334.856 333.218 322.259 299.448 292.743 305.147 288.718 275.533 266.853 257.761 241.452 223.909 205.113 192.452 178.187 168 155.536 152.456 155.541 158.429 154.292 152.071 148.163 138.4 134.621 130.521 120.908 107.219 101.587 94.7033 87.5954 81.8349 71.4848 60.5362 54.36 50.7051 48.1277 46.5118 44.0927 41.7981 41.1957 40.7863 38.3602 35.3743 33.8511 31.725 29.0012 26.7006 25.6459 24.0837 23.0667 22.534 21.9292 20.6863 20.1749 20.145 19.4153 17.8789 16.3627 15.886 15.8069 15.5681 14.7379 15.0229
285.5225 0.00025 656.55 1654.05 2501.9 2099.79 2025.04 1762.97 1570.7 1419.59 1221.27 1040.3 917.956 887.051 798.908 768.547 725.312 660.475 630.246 596.196 594.578 562.803 530.424 524.73 503.42 475.729 453.739 447.117 441.358 446.244 432.331 414.693 416.106 396.806 377.573 359.759 347.392 338.575 334.558 333.401 322.406 299.049 292.778 305.292 288.158 274.487 265.023 257.781 241.542 224.115 205.203 192.634 178.444 167.66 155.091 152.384 155.295 158.061 153.932 151.828 147.838 138.194 134.428 130.321 120.904 107.15 101.512 94.7246 87.6833 81.8086 71.7953 60.7777 54.4291 50.7379 48.0845 46.4739 44.1187 41.7658 41.1412 40.7469 38.3664 35.4009 33.8364 31.748 29.0131 26.7148 25.6446 24.0746 23.0466 22.5396 21.9287 20.6674 20.1416 20.1201 19.4076 17.8781 16.3555 15.8728 15.7915 15.5498 14.7157 15.0093
285.525 0.00025 657.317 1652.55 2494.1 2098.98 2016.89 1758.86 1570.08 1417.99 1221 1041.05 915.176 883.808 795.969 764.073 724.486 658.367 629.269 597.063 594.692 562.751 530.749 526.599 505.248 477.419 453.227 446.362 442.529 447.846 433.348 416.126 415.842 397.418 376.517 358.718 346.411 338.191 334.351 333.432 322.471 298.683 292.883 305.384 287.634 273.428 263.133 257.769 241.64 224.308 205.289 192.802 178.676 167.328 154.643 152.323 155.064 157.673 153.599 151.585 147.497 137.998 134.238 130.108 120.858 107.078 101.433 94.7547 87.7691 81.772 72.0788 61.0367 54.501 50.7772 48.042 46.4315 44.1522 41.7374 41.084 40.7022 38.3673 35.4306 33.8188 31.7668 29.0262 26.7323 25.6424 24.0671 23.0269 22.5442 21.9275 20.6497 20.1086 20.0946 19.399 17.8774 16.3485 15.8598 15.7758 15.5317 14.6936 14.9957
285.5275 0.00025 657.903 1650.16 2485.41 2098.78 2008.5 1753.79 1568.24 1416.61 1220.27 1041.48 912.26 880.268 793.018 759.444 723.408 656.504 628.377 598.087 593.931 562.837 531.032 528.334 507.302 479.247 452.664 445.54 443.97 449.06 434.455 417.516 415.688 398.175 375.521 357.585 345.45 337.886 334.241 333.314 322.436 298.37 293.04 305.432 287.152 272.353 261.213 257.7 241.745 224.49 205.38 192.959 178.878 167.008 154.193 152.268 154.848 157.262 153.287 151.342 147.144 137.811 134.049 129.887 120.772 107.001 101.348 94.7965 87.8489 81.7296 72.332 61.3126 54.5766 50.8227 48.0001 46.3846 44.1918 41.7144 41.024 40.6526 38.3626 35.463 33.7992 31.7814 29.0401 26.7529 25.6395 24.0608 23.0078 22.5479 21.9256 20.6332 20.0759 20.0686 19.3894 17.8767 16.3418 15.8467 15.7599 15.5138 14.6716 14.9823
285.53 0.00025 658.385 1646.87 2476.04 2099.33 2000.26 1748.06 1565.04 1415.34 1219.16 1041.5 909.292 876.257 790.125 754.77 721.977 654.885 627.565 599.309 592.366 563.01 531.362 529.922 509.518 481.16 452.165 444.635 445.643 449.983 435.581 418.761 415.714 399.077 374.596 356.371 344.497 337.669 334.228 333.062 322.288 298.134 293.233 305.444 286.719 271.259 259.298 257.551 241.856 224.667 205.481 193.111 179.046 166.707 153.744 152.216 154.649 156.831 152.99 151.1 146.781 137.631 133.861 129.661 120.649 106.918 101.252 94.8515 87.9192 81.6845 72.553 61.6039 54.657 50.8739 47.959 46.333 44.2361 41.6984 40.9613 40.5988 38.3519 35.4975 33.7784 31.7916 29.0543 26.7762 25.6364 24.0554 22.9896 22.5504 21.9229 20.618 20.0434 20.0422 19.3789 17.8761 16.3355 15.8337 15.7438 15.496 14.6495 14.969
285.5325 0.00025 658.803 1642.77 2466.22 2100.53 1992.58 1742.11 1560.5 1414.01 1217.75 1041.03 906.342 871.701 787.269 750.211 720.125 653.499 626.808 600.695 590.196 563.148 531.818 531.387 511.811 483.105 451.836 443.668 447.467 450.744 436.629 419.777 415.96 400.131 373.758 355.099 343.54 337.546 334.314 332.687 322.02 297.995 293.449 305.421 286.339 270.145 257.422 257.303 241.962 224.845 205.596 193.26 179.177 166.428 153.3 152.162 154.463 156.383 152.699 150.858 146.413 137.457 133.671 129.433 120.491 106.826 101.143 94.9201 87.9776 81.6388 72.7409 61.9085 54.7436 50.9301 47.9193 46.2768 44.2835 41.6906 40.896 40.5412 38.3347 35.5335 33.7573 31.7975 29.0682 26.8019 25.6336 24.0508 22.9726 22.5517 21.9193 20.6039 20.0111 20.0155 19.3673 17.8754 16.3294 15.8206 15.7274 15.4784 14.6275 14.9557
285.535 0.00025 659.174 1638.04 2456.28 2102.22 1985.93 1736.3 1554.77 1412.5 1216.09 1040.06 903.457 866.636 784.402 745.902 717.862 652.281 626.099 602.149 587.71 563.101 532.448 532.784 514.088 485.04 451.751 442.691 449.347 451.467 437.506 420.514 416.431 401.345 373.029 353.792 342.57 337.512 334.491 332.209 321.625 297.968 293.679 305.362 286.011 269.011 255.62 256.941 242.056 225.027 205.728 193.411 179.268 166.174 152.866 152.102 154.29 155.924 152.409 150.617 146.043 137.289 133.481 129.206 120.305 106.726 101.018 95.0016 88.0236 81.5941 72.8963 62.2236 54.8377 50.9903 47.8818 46.2159 44.3322 41.6923 40.8284 40.4803 38.311 35.5704 33.7365 31.7995 29.0815 26.8294 25.6315 24.0465 22.9571 22.5517 21.9146 20.5909 19.9792 19.9887 19.3548 17.8747 16.3235 15.8076 15.7108 15.461 14.6056 14.9426
285.5375 0.00025 659.502 1632.94 2446.54 2104.06 1980.72 1730.94 1548.05 1410.73 1214.11 1038.69 900.646 861.2 781.452 741.924 715.253 651.121 625.452 603.534 585.207 562.756 533.244 534.177 516.27 486.923 451.936 441.791 451.188 452.251 438.128 420.948 417.089 402.723 372.44 352.475 341.589 337.557 334.754 331.653 321.107 298.058 293.924 305.263 285.728 267.866 253.923 256.456 242.125 225.217 205.879 193.567 179.32 165.944 152.451 152.031 154.126 155.459 152.113 150.373 145.674 137.127 133.287 128.981 120.092 106.617 100.877 95.0936 88.0572 81.5505 73.0202 62.546 54.9408 51.0536 47.8474 46.1504 44.3806 41.7042 40.7591 40.4167 38.2804 35.6074 33.7167 31.7977 29.0939 26.858 25.6306 24.0422 22.9434 22.5502 21.9089 20.5791 19.9474 19.9617 19.3413 17.8739 16.318 15.7945 15.694 15.4437 14.5837 14.9296
285.54 0.00025 659.811 1627.81 2437.02 2105.69 1977.21 1726.19 1540.66 1408.62 1211.74 1037.09 897.888 855.604 778.355 738.343 712.386 649.876 624.92 604.718 582.915 562.067 534.166 535.617 518.316 488.71 452.36 441.084 452.912 453.154 438.455 421.089 417.869 404.259 372.033 351.173 340.603 337.658 335.09 331.042 320.474 298.263 294.193 305.117 285.479 266.722 252.356 255.846 242.156 225.416 206.051 193.727 179.336 165.738 152.064 151.946 153.967 154.995 151.808 150.124 145.307 136.972 133.088 128.758 119.859 106.498 100.72 95.1921 88.08 81.5078 73.1144 62.8722 55.0543 51.1191 47.8168 46.0804 44.4269 41.7268 40.6887 40.3507 38.243 35.6439 33.6982 31.7927 29.1052 26.8873 25.6314 24.0378 22.9317 22.5474 21.9021 20.5683 19.9159 19.9346 19.3267 17.8731 16.3127 15.7814 15.6771 15.4266 14.5618 14.9166
285.5425 0.00025 660.097 1622.95 2427.88 2106.88 1975.45 1722.12 1532.86 1406.11 1208.98 1035.4 895.152 850.09 775.069 735.196 709.335 648.419 624.543 605.604 580.987 561.079 535.131 537.131 520.215 490.36 452.954 440.694 454.464 454.178 438.495 420.971 418.681 405.921 371.857 349.915 339.623 337.791 335.477 330.407 319.741 298.57 294.498 304.919 285.243 265.599 250.936 255.115 242.136 225.627 206.244 193.892 179.321 165.552 151.714 151.843 153.807 154.536 151.491 149.866 144.947 136.825 132.883 128.536 119.609 106.372 100.547 95.2924 88.0938 81.4654 73.1814 63.1984 55.1793 51.1863 47.791 46.0063 44.4697 41.7603 40.6182 40.2827 38.1987 35.679 33.6815 31.7849 29.115 26.9164 25.6341 24.033 22.9222 22.5431 21.894 20.5585 19.8847 19.9077 19.3112 17.8722 16.3077 15.7683 15.66 15.4096 14.5401 14.9036
285.545 0.00025 660.373 1618.58 2419.15 2107.46 1975.21 1718.74 1525.05 1403.02 1206.01 1033.67 892.429 844.847 771.613 732.507 706.153 646.683 624.333 606.166 579.452 559.928 536.049 538.712 521.983 491.822 453.636 440.743 455.805 455.272 438.316 420.64 419.426 407.656 371.956 348.735 338.664 337.928 335.887 329.779 318.932 298.96 294.851 304.663 284.997 264.518 249.674 254.275 242.052 225.846 206.459 194.059 179.283 165.381 151.411 151.719 153.641 154.088 151.158 149.592 144.595 136.686 132.672 128.314 119.346 106.239 100.359 95.3893 88.101 81.4223 73.2242 63.5208 55.3171 51.2544 47.7706 45.9285 44.5074 41.8043 40.5487 40.2131 38.1477 35.7121 33.6667 31.775 29.1234 26.9448 25.6391 24.0278 22.915 22.5375 21.8848 20.5497 19.8538 19.8808 19.2946 17.8712 16.3028 15.7552 15.6428 15.3928 14.5183 14.8907
285.5475 0.00025 660.619 1614.83 2410.97 2107.49 1975.99 1716.08 1517.53 1399.1 1203.14 1031.88 889.727 839.986 768.086 730.261 702.881 644.653 624.226 606.447 578.248 558.786 536.835 540.329 523.648 493.071 454.332 441.328 456.916 456.351 438.023 420.156 420.016 409.391 372.365 347.679 337.741 338.046 336.288 329.181 318.074 299.412 295.261 304.346 284.715 263.502 248.57 253.341 241.894 226.074 206.697 194.223 179.228 165.22 151.164 151.572 153.46 153.653 150.81 149.299 144.254 136.555 132.457 128.091 119.074 106.103 100.159 95.4771 88.104 81.3777 73.2456 63.8356 55.4688 51.3232 47.7559 45.8479 44.539 41.8582 40.4812 40.1422 38.09 35.7424 33.654 31.7636 29.1303 26.9718 25.6464 24.0222 22.91 22.5306 21.8743 20.5416 19.8231 19.8542 19.2771 17.87 16.2983 15.742 15.6254 15.3761 14.4967 14.8778
285.55 0.00025 660.861 1611.6 2403.44 2107 1977.26 1714.13 1510.53 1394.14 1200.78 1029.98 887.077 835.513 764.639 728.395 699.567 642.387 624.103 606.557 577.254 557.814 537.444 541.919 525.221 494.107 454.994 442.508 457.797 457.311 437.741 419.588 420.379 411.036 373.1 346.798 336.866 338.124 336.642 328.634 317.197 299.903 295.733 303.97 284.368 262.572 247.622 252.332 241.651 226.309 206.956 194.376 179.165 165.062 150.984 151.404 153.259 153.234 150.445 148.985 143.923 136.431 132.237 127.863 118.797 105.966 99.9483 95.5505 88.1051 81.3309 73.2487 64.1389 55.635 51.3926 47.7471 45.7653 44.5634 41.9209 40.4171 40.0704 38.026 35.7693 33.6433 31.7513 29.1357 26.997 25.656 24.0163 22.9071 22.5226 21.8624 20.5343 19.7927 19.8278 19.2586 17.8686 16.2939 15.7287 15.608 15.3595 14.475 14.865
285.5525 0.00025 661.055 1608.84 2396.62 2106.1 1978.41 1712.92 1504.13 1388 1199.25 1027.94 884.501 831.367 761.443 726.814 696.253 639.988 623.812 606.635 576.334 557.12 537.894 543.409 526.686 494.962 455.612 444.281 458.461 458.068 437.588 419.022 420.459 412.501 374.152 346.146 336.049 338.149 336.92 328.146 316.329 300.416 296.264 303.54 283.933 261.746 246.817 251.27 241.318 226.546 207.235 194.514 179.101 164.903 150.875 151.217 153.029 152.832 150.062 148.647 143.601 136.312 132.018 127.629 118.516 105.834 99.7299 95.6048 88.1062 81.2808 73.2369 64.4277 55.8162 51.4622 47.7442 45.6818 44.5799 41.9912 40.3575 39.9979 37.9559 35.7923 33.6344 31.7388 29.1399 27.0199 25.6676 24.0104 22.9062 22.5137 21.8491 20.5276 19.7626 19.8017 19.2393 17.867 16.2898 15.7154 15.5905 15.3431 14.4535 14.8522
285.555 0.00025 661.206 1606.13 2390.59 2104.88 1978.96 1712.5 1498.21 1380.7 1198.64 1025.87 882.002 827.465 758.629 725.426 692.977 637.582 623.218 606.808 575.395 556.729 538.254 544.732 528.007 495.685 456.203 446.576 458.946 458.564 437.646 418.554 420.229 413.697 375.486 345.777 335.297 338.113 337.088 327.718 315.496 300.935 296.851 303.063 283.389 261.036 246.143 250.18 240.891 226.781 207.533 194.63 179.042 164.739 150.841 151.015 152.765 152.45 149.663 148.285 143.286 136.194 131.8 127.385 118.233 105.711 99.5066 95.6363 88.1091 81.2268 73.2133 64.6984 56.0125 51.5323 47.7467 45.5986 44.5883 42.0674 40.3035 39.9252 37.8801 35.8107 33.6271 31.7267 29.1429 27.0401 25.6809 24.0049 22.907 22.5039 21.8345 20.5215 19.7327 19.7759 19.2191 17.8652 16.2858 15.702 15.573 15.3268 14.432 14.8395
285.5575 0.00025 661.239 1603.42 2385.41 2103.45 1978.57 1712.83 1492.65 1372.38 1198.72 1023.97 879.579 823.74 756.261 724.163 689.758 635.305 622.245 607.14 574.403 556.576 538.628 545.85 529.142 496.32 456.829 449.257 459.311 458.784 437.952 418.266 419.685 414.559 377.046 345.738 334.618 338.012 337.133 327.339 314.713 301.444 297.49 302.546 282.721 260.446 245.584 249.083 240.373 227.004 207.848 194.717 178.994 164.567 150.884 150.805 152.46 152.086 149.248 147.899 142.975 136.075 131.59 127.13 117.949 105.601 99.2806 95.6411 88.115 81.1684 73.1812 64.9485 56.2237 51.6037 47.7541 45.5167 44.5885 42.1479 40.256 39.8525 37.799 35.824 33.6211 31.7156 29.145 27.0575 25.6954 24.0003 22.9092 22.4936 21.8184 20.5159 19.7031 19.7505 19.1981 17.8631 16.282 15.6885 15.5554 15.3106 14.4105 14.8267
285.56 0.00025 661.103 1600.61 2381.01 2101.95 1977.17 1713.82 1487.28 1363.32 1199.05 1022.54 877.255 820.172 754.33 722.992 686.604 633.267 620.907 607.586 573.41 556.535 539.118 546.756 530.055 496.906 457.585 452.122 459.63 458.758 438.508 418.224 418.851 415.046 378.757 346.06 334.025 337.854 337.051 326.994 313.992 301.933 298.175 301.996 281.919 259.974 245.124 248.003 239.771 227.203 208.18 194.77 178.957 164.389 151 150.59 152.112 151.74 148.821 147.49 142.663 135.953 131.39 126.861 117.665 105.508 99.0553 95.6165 88.124 81.1049 73.1436 65.1757 56.4492 51.677 47.7657 45.4375 44.5806 42.2307 40.2161 39.7805 37.7131 35.8319 33.6159 31.7059 29.1465 27.0717 25.7104 23.997 22.9124 22.483 21.8008 20.5106 19.6739 19.7255 19.1763 17.8606 16.2784 15.6749 15.5378 15.2945 14.3891 14.814
285.5625 0.00025 660.779 1597.58 2377.29 2100.6 1974.8 1715.31 1482.06 1353.89 1199.09 1021.91 875.063 816.793 752.763 721.913 683.519 631.545 619.293 608.04 572.518 556.458 539.808 547.464 530.728 497.461 458.582 454.939 459.983 458.546 439.287 418.459 417.779 415.146 380.538 346.756 333.526 337.651 336.848 326.668 313.342 302.39 298.902 301.419 280.984 259.609 244.753 246.956 239.096 227.364 208.526 194.785 178.932 164.205 151.185 150.378 151.72 151.407 148.382 147.059 142.347 135.824 131.204 126.576 117.381 105.434 98.8342 95.5614 88.1366 81.035 73.1037 65.3781 56.6878 51.7537 47.7805 45.3622 44.5651 42.3142 40.1842 39.7095 37.6228 35.8339 33.6113 31.698 29.1477 27.0829 25.7253 23.9957 22.9164 22.4722 21.7818 20.5057 19.6448 19.7009 19.1539 17.8578 16.275 15.6613 15.5202 15.2786 14.3678 14.8014
285.565 0.00025 660.28 1594.25 2374.1 2099.61 1971.57 1717.05 1477.09 1344.51 1198.34 1022.27 873.082 813.67 751.462 720.939 680.523 630.171 617.546 608.344 571.847 556.21 540.754 548.026 531.173 497.994 459.924 457.484 460.447 458.244 440.237 418.967 416.539 414.872 382.303 347.819 333.136 337.421 336.544 326.343 312.77 302.802 299.663 300.82 279.923 259.333 244.461 245.955 238.365 227.473 208.886 194.76 178.918 164.02 151.432 150.175 151.285 151.083 147.937 146.609 142.02 135.688 131.036 126.276 117.099 105.381 98.6197 95.475 88.1519 80.9587 73.0645 65.5547 56.9376 51.8355 47.7972 45.292 44.5427 42.3965 40.1609 39.64 37.5287 35.8296 33.6068 31.6922 29.1489 27.0911 25.7393 23.9966 22.9208 22.4615 21.7614 20.501 19.6161 19.6766 19.1309 17.8546 16.2717 15.6475 15.5026 15.2628 14.3465 14.7887
285.5675 0.00025 659.606 1590.58 2371.39 2099.14 1967.6 1718.75 1472.5 1335.51 1196.5 1023.68 871.436 810.877 750.314 720.066 677.661 629.126 615.827 608.354 571.495 555.701 541.971 548.495 531.417 498.513 461.678 459.599 461.054 457.957 441.307 419.697 415.222 414.267 383.974 349.219 332.874 337.187 336.169 326.004 312.279 303.159 300.445 300.206 278.75 259.125 244.244 245.008 237.593 227.518 209.253 194.699 178.91 163.839 151.73 149.986 150.81 150.763 147.489 146.143 141.68 135.541 130.886 125.961 116.816 105.351 98.4148 95.358 88.1688 80.8755 73.028 65.705 57.1965 51.9242 47.815 45.2278 44.5141 42.476 40.1463 39.5725 37.4313 35.8188 33.6021 31.6887 29.1505 27.0965 25.7517 24.0002 22.9255 22.4509 21.7396 20.4963 19.5876 19.6528 19.1074 17.851 16.2685 15.6336 15.4849 15.2471 14.3252 14.776
285.57 0.00025 658.72 1586.73 2369.03 2099.16 1962.99 1719.99 1468.4 1327.17 1193.55 1025.98 870.288 808.478 749.259 719.274 675.011 628.362 614.287 607.979 571.503 554.911 543.426 548.924 531.503 499.048 463.852 461.216 461.791 457.801 442.451 420.579 413.919 413.389 385.494 350.896 332.753 336.979 335.756 325.636 311.876 303.455 301.231 299.585 277.482 258.958 244.1 244.118 236.799 227.488 209.621 194.603 178.901 163.668 152.07 149.816 150.302 150.442 147.043 145.665 141.322 135.382 130.758 125.631 116.533 105.344 98.2214 95.2121 88.1861 80.7853 72.9966 65.8293 57.4615 52.0216 47.8329 45.1705 44.4805 42.5511 40.1404 39.5076 37.3313 35.8013 33.5968 31.6875 29.1527 27.0992 25.7619 24.0067 22.9302 22.4406 21.7165 20.4917 19.5593 19.6294 19.0833 17.847 16.2654 15.6196 15.4673 15.2316 14.304 14.7634
285.5725 0.00025 657.609 1582.8 2367.16 2099.58 1957.74 1720.4 1464.8 1319.56 1189.68 1028.81 869.799 806.497 748.297 718.504 672.665 627.827 613.051 607.218 571.848 553.899 545.042 549.344 531.482 499.631 466.401 462.369 462.599 457.877 443.632 421.527 412.712 412.309 386.826 352.773 332.795 336.825 335.338 325.222 311.563 303.681 302.004 298.964 276.146 258.804 244.029 243.286 235.997 227.381 209.98 194.481 178.885 163.515 152.442 149.669 149.766 150.113 146.6 145.177 140.945 135.209 130.651 125.29 116.249 105.359 98.0409 95.0396 88.202 80.6885 72.9716 65.9294 57.7293 52.1294 47.8504 45.1205 44.443 42.6207 40.143 39.4457 37.2291 35.7768 33.5907 31.6888 29.1558 27.0996 25.7691 24.0162 22.935 22.4304 21.6923 20.487 19.5314 19.6063 19.0589 17.8425 16.2625 15.6055 15.4497 15.2162 14.2828 14.7508
285.575 0.00025 656.33 1578.74 2365.91 2100.08 1951.78 1719.7 1461.63 1312.64 1185.27 1031.7 870.101 804.929 747.46 717.681 670.71 627.468 612.177 606.132 572.46 552.786 546.689 549.783 531.406 500.309 469.235 463.164 463.397 458.254 444.84 422.459 411.68 411.101 387.951 354.761 333.016 336.757 334.948 324.743 311.344 303.834 302.739 298.349 274.771 258.638 244.028 242.508 235.203 227.196 210.318 194.339 178.855 163.386 152.835 149.548 149.213 149.773 146.162 144.684 140.547 135.019 130.565 124.942 115.964 105.394 97.8743 94.8435 88.2146 80.5854 72.9536 66.0076 57.9961 52.249 47.8675 45.0781 44.4029 42.6837 40.1537 39.3873 37.1255 35.7453 33.5834 31.6924 29.1602 27.098 25.773 24.0287 22.94 22.4204 21.6671 20.4821 19.5037 19.5836 19.0342 17.8375 16.2597 15.5913 15.4321 15.2009 14.2617 14.7382
285.5775 0.00025 654.882 1574.61 2365.4 2100.42 1944.94 1717.84 1458.74 1306.33 1180.73 1034.19 871.243 803.775 746.787 716.737 669.181 627.259 611.652 604.843 573.242 551.727 548.206 550.267 531.307 501.123 472.244 463.742 464.111 458.947 446.075 423.306 410.875 409.837 388.873 356.767 333.43 336.803 334.615 324.187 311.213 303.915 303.416 297.743 273.387 258.44 244.095 241.783 234.427 226.94 210.622 194.188 178.803 163.288 153.24 149.45 148.652 149.419 145.731 144.189 140.129 134.812 130.497 124.59 115.676 105.449 97.7225 94.6271 88.2218 80.4766 72.9425 66.0671 58.258 52.3811 47.885 45.0429 44.3616 42.7393 40.1717 39.3329 37.0209 35.7066 33.5749 31.6982 29.166 27.0948 25.773 24.044 22.9452 22.4105 21.641 20.4769 19.4762 19.5611 19.0092 17.832 16.257 15.5769 15.4145 15.1857 14.2406 14.7257
285.58 0.00025 653.266 1570.48 2365.66 2100.36 1937.13 1714.88 1455.91 1300.55 1176.36 1035.85 873.193 803.056 746.267 715.647 668.06 627.189 611.43 603.464 574.119 550.849 549.44 550.799 531.196 502.099 475.32 464.252 464.71 459.924 447.365 424.025 410.32 408.583 389.605 358.707 334.048 336.989 334.356 323.545 311.163 303.928 304.011 297.151 272.029 258.193 244.221 241.109 233.674 226.622 210.879 194.036 178.722 163.229 153.65 149.375 148.093 149.047 145.308 143.694 139.695 134.587 130.443 124.241 115.386 105.519 97.5852 94.3938 88.2208 80.3637 72.9372 66.1122 58.5106 52.5258 47.9044 45.0145 44.3205 42.7872 40.1963 39.2829 36.916 35.6606 33.5647 31.706 29.1734 27.0903 25.769 24.0615 22.951 22.4005 21.6144 20.4713 19.449 19.5389 18.984 17.8261 16.2543 15.5624 15.397 15.1706 14.2196 14.7131
285.5825 0.00025 651.482 1566.37 2366.58 2099.88 1928.52 1710.93 1452.99 1295.24 1172.34 1036.5 875.821 802.838 745.838 714.443 667.254 627.281 611.432 602.093 575.052 550.197 550.3 551.347 531.092 503.246 478.377 464.8 465.207 461.1 448.729 424.595 410.018 407.395 390.163 360.515 334.867 337.337 334.185 322.823 311.177 303.879 304.502 296.573 270.73 257.888 244.394 240.487 232.952 226.252 211.078 193.893 178.608 163.212 154.057 149.318 147.548 148.656 144.892 143.201 139.252 134.342 130.4 123.899 115.092 105.602 97.4623 94.1476 88.2105 80.2485 72.9357 66.1475 58.7505 52.6824 47.9275 44.9919 44.281 42.8271 40.2265 39.2378 36.8113 35.6076 33.5528 31.7156 29.1825 27.085 25.7607 24.0809 22.9577 22.3901 21.5874 20.4653 19.4221 19.5169 18.9587 17.8196 16.2517 15.5478 15.3795 15.1556 14.1987 14.7006
285.585 0.00025 649.562 1562.25 2367.9 2099.11 1919.48 1706.1 1449.92 1290.42 1168.68 1036.09 878.948 803.185 745.436 713.19 666.627 627.587 611.573 600.787 576.063 549.717 550.788 551.823 531.014 504.531 481.364 465.466 465.649 462.359 450.195 425.022 409.948 406.321 390.564 362.153 335.877 337.867 334.1 322.037 311.237 303.78 304.869 296.008 269.517 257.528 244.602 239.922 232.262 225.84 211.21 193.769 178.458 163.241 154.457 149.273 147.028 148.245 144.483 142.709 138.806 134.076 130.362 123.571 114.796 105.693 97.3527 93.8917 88.1891 80.133 72.9358 66.1777 58.9743 52.8497 47.9564 44.9744 44.2443 42.8592 40.2612 39.1977 36.7075 35.5476 33.539 31.7266 29.1934 27.0794 25.7481 24.1015 22.9657 22.3791 21.5603 20.4586 19.3955 19.4951 18.9332 17.8126 16.2492 15.533 15.362 15.1407 14.1779 14.6882
285.5875 0.00025 647.551 1558.08 2369.22 2098.22 1910.4 1700.41 1446.74 1286.04 1165.25 1034.7 882.374 804.136 745.006 711.951 666.032 628.155 611.795 599.557 577.172 549.281 550.989 552.098 531 505.91 484.264 466.286 466.112 463.588 451.769 425.344 410.086 405.392 390.821 363.601 337.057 338.589 334.097 321.216 311.318 303.643 305.095 295.456 268.412 257.119 244.826 239.423 231.605 225.398 211.268 193.668 178.269 163.316 154.846 149.235 146.54 147.815 144.08 142.217 138.362 133.788 130.32 123.263 114.5 105.786 97.2558 93.6295 88.1547 80.0193 72.9343 66.2075 59.1795 53.0257 47.9931 44.9613 44.2115 42.8838 40.2993 39.1628 36.6051 35.4808 33.5232 31.7389 29.206 27.0737 25.7314 24.1227 22.9753 22.3673 21.5332 20.4513 19.3691 19.4733 18.9078 17.8052 16.2468 15.5181 15.3445 15.1259 14.1571 14.6757
285.59 0.00025 645.463 1553.88 2370.45 2097.38 1901.69 1693.85 1443.59 1282.12 1161.87 1032.55 885.915 805.642 744.544 710.778 665.354 628.996 612.063 598.402 578.39 548.751 551.014 552.028 531.09 507.32 487.091 467.267 466.664 464.688 453.427 425.61 410.412 404.622 390.946 364.857 338.389 339.503 334.169 320.395 311.397 303.477 305.169 294.915 267.43 256.677 245.049 238.996 230.982 224.934 211.249 193.597 178.044 163.436 155.222 149.199 146.094 147.367 143.684 141.723 137.929 133.479 130.268 122.98 114.205 105.88 97.1706 93.364 88.1066 79.9102 72.9284 66.2408 59.3649 53.2076 48.0396 44.9522 44.1833 42.9016 40.3398 39.1333 36.5048 35.4075 33.5052 31.7521 29.2202 27.0683 25.7106 24.1436 22.9869 22.3546 21.5064 20.4432 19.3431 19.4516 18.8823 17.7972 16.2444 15.5031 15.3271 15.1111 14.1365 14.6633
285.5925 0.00025 643.309 1549.78 2371.51 2096.65 1893.72 1686.43 1440.65 1278.75 1158.35 1029.91 889.392 807.589 744.07 709.712 664.532 630.078 612.366 597.301 579.673 548.041 550.952 551.509 531.301 508.697 489.868 468.403 467.346 465.598 455.125 425.874 410.926 404.014 390.946 365.933 339.846 340.6 334.313 319.608 311.453 303.289 305.087 294.378 266.575 256.22 245.256 238.649 230.391 224.455 211.153 193.559 177.787 163.594 155.583 149.16 145.692 146.903 143.293 141.227 137.512 133.15 130.199 122.726 113.914 105.967 97.0959 93.0973 88.0439 79.8079 72.915 66.2814 59.5304 53.3921 48.0972 44.9471 44.1602 42.9136 40.3814 39.109 36.4071 35.3279 33.4848 31.766 29.236 27.0636 25.6862 24.1637 23.0007 22.3408 21.4801 20.4343 19.3174 19.4299 18.8569 17.7888 16.242 15.4879 15.3098 15.0963 14.1159 14.651