285.5025 0.00025 0.118207 0.174623 0.262827 0.288804 0.295776 0.279845 0.26208 0.251834 0.225263 0.211602 0.201459 0.186181 0.181598 0.194638 0.19491 0.2019 0.196099 0.179044 0.169274 0.172648 0.179619 0.179948 0.194791 0.207384 0.206999 0.203885 0.209444 0.20905 0.193281 0.182768 0.18244 0.182634 0.176213 0.164816 0.157205 0.150598 0.152052 0.150962 0.143533 0.129264 0.116931 0.109449 0.105717 0.101816 0.0984688 0.0965022 0.0963143 0.093877 0.0890484 0.0864957 0.0840212 0.0834943 0.0804048 0.0799674 0.0831775 0.0818493 0.0764726 0.0681329 0.0601074 0.0557585 0.0535631 0.0499471 0.0456764 0.0414117 0.0390591 0.0365376 0.0353303 0.034393 0.0331626 0.0321174 0.0323944 0.0335522 0.0332593 0.0328433 0.0322227 0.029818 0.0271512 0.0252225 0.0235676 0.0230239 0.0220055 0.0200584 0.0185885 0.0175823 0.0177065 0.0174647 0.0170393 0.0171279 0.0167008 0.0159758 0.0158675 0.0164391 0.0167616 0.0168172 0.0167651 0.0164066 0.0166533 0.0189405 0.0247736 0.0306616
285.505 0.00025 0.118206 0.174693 0.263091 0.287416 0.294025 0.279131 0.26105 0.252663 0.22646 0.211684 0.201348 0.185558 0.180091 0.194165 0.195243 0.200994 0.196003 0.178555 0.16912 0.173283 0.180504 0.180705 0.194548 0.206823 0.206708 0.204157 0.209572 0.209477 0.193732 0.182798 0.182459 0.182884 0.176297 0.164817 0.157653 0.150757 0.151958 0.150886 0.14343 0.129227 0.116954 0.109258 0.105402 0.101691 0.0982095 0.096484 0.0961634 0.0937042 0.0889254 0.0862882 0.0836356 0.0831049 0.0803384 0.0798237 0.0828011 0.0817143 0.076526 0.0681519 0.0601265 0.055597 0.0533897 0.0500013 0.045842 0.0414949 0.039144 0.0366317 0.0353499 0.0343756 0.0331412 0.0321217 0.0323732 0.0335391 0.0332597 0.032848 0.0322395 0.0298174 0.0271327 0.0252237 0.0235769 0.023038 0.0220222 0.020058 0.0185585 0.0175559 0.0176921 0.0174628 0.0170368 0.0171279 0.0167081 0.0159749 0.0158577 0.0164165 0.0167382 0.0168079 0.0167662 0.0164036 0.016642 0.0189247 0.0247589 0.0306482
285.5075 0.00025 0.118179 0.174751 0.263359 0.285924 0.292318 0.278457 0.260113 0.253316 0.227627 0.211763 0.201141 0.184983 0.178578 0.193507 0.195727 0.200105 0.195832 0.178133 0.168955 0.173798 0.181346 0.181514 0.194352 0.206183 0.206356 0.204427 0.209667 0.209861 0.194169 0.182877 0.182508 0.183079 0.176312 0.164837 0.158111 0.150971 0.151861 0.150782 0.143289 0.129171 0.116955 0.109099 0.105111 0.101546 0.0979371 0.0964516 0.0960019 0.0935494 0.0888127 0.0860765 0.0832419 0.0826921 0.0802659 0.0796963 0.0824195 0.0815651 0.0765603 0.0681696 0.0601529 0.0554445 0.0532132 0.0500465 0.0460021 0.0415814 0.0392231 0.0367277 0.035374 0.0343582 0.0331192 0.0321251 0.0323513 0.0335239 0.0332607 0.0328537 0.0322552 0.0298155 0.0271143 0.0252241 0.0235873 0.0230526 0.0220379 0.020059 0.0185301 0.0175288 0.0176761 0.0174605 0.017035 0.0171265 0.016715 0.0159746 0.0158483 0.0163947 0.0167154 0.0167982 0.016767 0.0164008 0.016631 0.018909 0.0247442 0.0306347
285.51 0.00025 0.118117 0.174777 0.263637 0.284365 0.290673 0.277823 0.259282 0.253795 0.228758 0.211835 0.200829 0.184431 0.177111 0.192675 0.196322 0.199268 0.195557 0.177789 0.168804 0.17419 0.182125 0.182349 0.19421 0.205485 0.205938 0.204687 0.209734 0.210203 0.1946 0.183002 0.182585 0.183224 0.176259 0.164879 0.158574 0.151237 0.151767 0.150644 0.143115 0.129096 0.116936 0.108971 0.104847 0.101379 0.0976542 0.0964057 0.0958306 0.0934141 0.0887099 0.0858606 0.0828403 0.0822606 0.0801894 0.0795847 0.0820339 0.0814043 0.0765753 0.0681851 0.060186 0.0553007 0.0530349 0.0500821 0.0461534 0.0416713 0.0392967 0.0368235 0.0354023 0.0343411 0.0330974 0.0321274 0.0323285 0.0335064 0.0332622 0.0328605 0.0322701 0.0298126 0.0270965 0.0252242 0.0235988 0.0230678 0.0220527 0.0200613 0.0185036 0.0175011 0.0176583 0.0174579 0.017034 0.0171236 0.0167213 0.0159747 0.0158394 0.0163737 0.0166932 0.016788 0.0167674 0.0163982 0.0166204 0.0188933 0.0247295 0.0306213
285.5125 0.00025 0.118011 0.174749 0.263922 0.28276 0.289102 0.277215 0.258589 0.254097 0.229826 0.211902 0.200417 0.183881 0.175726 0.191686 0.196969 0.19851 0.195164 0.177527 0.168696 0.174466 0.182824 0.183195 0.194136 0.204738 0.205449 0.204928 0.209769 0.210497 0.195035 0.183171 0.182685 0.183324 0.176139 0.164936 0.159037 0.151553 0.151681 0.150474 0.142911 0.129006 0.116897 0.108867 0.104613 0.101192 0.0973585 0.0963458 0.0956525 0.0932978 0.0886145 0.0856408 0.0824286 0.0818127 0.0801075 0.0794866 0.0816468 0.0812329 0.0765704 0.0681964 0.0602226 0.0551658 0.0528555 0.0501084 0.0462957 0.0417661 0.0393666 0.0369179 0.0354351 0.034323 0.0330759 0.032129 0.0323051 0.0334864 0.0332637 0.0328683 0.0322842 0.0298083 0.0270791 0.0252235 0.0236112 0.0230835 0.0220667 0.0200646 0.018479 0.0174731 0.0176386 0.0174548 0.0170336 0.0171193 0.0167269 0.0159754 0.0158308 0.0163536 0.0166717 0.0167776 0.0167673 0.0163956 0.01661 0.0188777 0.0247148 0.0306079
285.515 0.00025 0.11786 0.174644 0.264199 0.281161 0.287621 0.276621 0.258035 0.254227 0.230813 0.211973 0.199904 0.183314 0.174448 0.190595 0.197607 0.197861 0.194655 0.177334 0.168651 0.174648 0.183434 0.184025 0.194132 0.203965 0.204893 0.205133 0.209774 0.21074 0.195478 0.183378 0.182803 0.183378 0.175952 0.165007 0.159496 0.151915 0.151604 0.150269 0.142678 0.128902 0.116844 0.108783 0.104411 0.100984 0.0970497 0.0962723 0.0954682 0.0931994 0.0885243 0.0854172 0.0820088 0.0813517 0.0800191 0.0793984 0.081259 0.0810534 0.0765463 0.0682026 0.060262 0.0550403 0.0526783 0.0501265 0.0464284 0.0418654 0.0394328 0.0370109 0.0354736 0.0343039 0.0330554 0.0321303 0.0322816 0.0334643 0.0332654 0.0328776 0.0322979 0.0298028 0.0270622 0.0252223 0.0236247 0.0230996 0.02208 0.020069 0.0184564 0.0174449 0.0176171 0.0174513 0.0170342 0.0171138 0.0167318 0.0159765 0.0158225 0.0163341 0.0166508 0.0167668 0.0167667 0.0163932 0.0165999 0.0188621 0.0247 0.0305945
285.5175 0.00025 0.117653 0.174431 0.264435 0.279605 0.286206 0.276034 0.257621 0.254198 0.231709 0.212055 0.199292 0.18273 0.173278 0.189452 0.198187 0.197339 0.194046 0.177193 0.168673 0.174764 0.183942 0.18481 0.194195 0.203181 0.204278 0.205291 0.209744 0.210929 0.195935 0.183624 0.18294 0.183393 0.175707 0.165087 0.159948 0.152315 0.151544 0.150032 0.142423 0.128789 0.116774 0.108708 0.104241 0.100759 0.0967271 0.0961831 0.0952783 0.093117 0.0884407 0.0851906 0.0815797 0.0808805 0.0799219 0.0793162 0.0808705 0.0808668 0.0765038 0.0682029 0.0603025 0.0549248 0.0525057 0.0501369 0.0465521 0.0419687 0.0394964 0.0371007 0.0355163 0.0342842 0.0330357 0.0321312 0.0322578 0.0334394 0.0332667 0.0328878 0.0323108 0.0297959 0.0270458 0.0252204 0.0236389 0.023116 0.0220928 0.0200741 0.018436 0.0174167 0.0175938 0.0174471 0.0170356 0.017107 0.016736 0.0159782 0.0158146 0.0163154 0.0166307 0.0167557 0.0167656 0.0163909 0.0165902 0.0188465 0.0246852 0.0305811
285.52 0.00025 0.117409 0.174101 0.264603 0.278157 0.284871 0.27543 0.257335 0.25401 0.232505 0.21214 0.198592 0.182124 0.172228 0.188308 0.198651 0.196933 0.193362 0.177088 0.168757 0.17485 0.18435 0.185525 0.194324 0.202411 0.203631 0.205389 0.209679 0.211065 0.196408 0.183903 0.183088 0.183374 0.175411 0.165169 0.160397 0.152746 0.151505 0.149766 0.142147 0.128666 0.116692 0.10864 0.104103 0.100515 0.0963893 0.096078 0.0950868 0.0930507 0.0883614 0.0849597 0.0811431 0.0804018 0.0798149 0.0792382 0.0804819 0.0806737 0.0764427 0.0681957 0.0603435 0.0548199 0.0523401 0.0501414 0.0466656 0.0420764 0.0395587 0.0371866 0.0355639 0.0342625 0.0330167 0.0321317 0.0322338 0.0334119 0.0332674 0.0328991 0.0323232 0.0297879 0.0270301 0.025218 0.0236539 0.0231327 0.0221052 0.0200798 0.0184177 0.0173887 0.0175686 0.0174422 0.0170378 0.0170991 0.0167393 0.0159804 0.0158071 0.0162973 0.0166114 0.0167445 0.016764 0.0163886 0.0165808 0.0188311 0.0246703 0.0305676
285.5225 0.00025 0.117118 0.173634 0.264664 0.276859 0.283642 0.274782 0.257168 0.253654 0.233181 0.212224 0.197806 0.181476 0.171292 0.187215 0.198972 0.196632 0.192638 0.177007 0.168886 0.174943 0.184671 0.186143 0.194501 0.201672 0.202968 0.205404 0.209569 0.211144 0.196898 0.184218 0.183251 0.183318 0.17507 0.165245 0.160834 0.153199 0.151489 0.149468 0.14185 0.128538 0.116605 0.108572 0.103998 0.100258 0.0960385 0.0959585 0.0948935 0.0929974 0.0882874 0.0847254 0.0806985 0.079918 0.0796972 0.0791618 0.0800947 0.0804752 0.0763647 0.068179 0.0603813 0.054725 0.0521821 0.0501396 0.046769 0.0421875 0.0396196 0.0372678 0.0356158 0.0342389 0.032998 0.0321319 0.03221 0.033382 0.0332671 0.0329115 0.0323352 0.0297787 0.0270149 0.025215 0.0236695 0.0231496 0.0221173 0.020086 0.0184014 0.0173611 0.0175414 0.0174366 0.0170409 0.0170903 0.0167417 0.0159829 0.0157998 0.01628 0.0165929 0.016733 0.0167618 0.0163863 0.0165717 0.0188156 0.0246554 0.0305542
285.525 0.00025 0.116804 0.173056 0.264573 0.275747 0.282543 0.274044 0.257144 0.253129 0.233734 0.212292 0.196954 0.180767 0.170475 0.186198 0.199134 0.196418 0.191903 0.176943 0.169045 0.17507 0.184923 0.186649 0.194702 0.200985 0.202311 0.205323 0.209414 0.211164 0.197398 0.184567 0.183431 0.183233 0.174693 0.165308 0.161263 0.153672 0.151502 0.149147 0.141532 0.128406 0.116511 0.108499 0.10392 0.0999903 0.0956779 0.0958253 0.0947022 0.0929547 0.0882161 0.0844867 0.0802466 0.079433 0.0795685 0.079085 0.0797103 0.0802714 0.076273 0.0681539 0.0604153 0.054639 0.0520346 0.050134 0.0468621 0.0423025 0.0396811 0.0373445 0.0356714 0.0342133 0.0329797 0.0321323 0.0321866 0.0333495 0.0332659 0.0329251 0.0323467 0.0297685 0.0270004 0.0252115 0.0236858 0.0231666 0.0221292 0.0200927 0.0183873 0.017334 0.0175125 0.01743 0.0170447 0.0170805 0.0167432 0.015986 0.0157929 0.0162633 0.0165753 0.0167214 0.016759 0.0163841 0.016563 0.0188003 0.0246405 0.0305407
285.5275 0.00025 0.116476 0.172378 0.264291 0.274875 0.281608 0.273237 0.257252 0.252428 0.234161 0.212342 0.196059 0.179974 0.169774 0.185274 0.199131 0.196256 0.191171 0.17689 0.16921 0.175242 0.185139 0.187038 0.194902 0.20037 0.201683 0.205131 0.209205 0.211123 0.197905 0.184949 0.183633 0.183123 0.174287 0.165353 0.161679 0.154159 0.151543 0.148807 0.141196 0.128274 0.116416 0.108414 0.103868 0.0997141 0.0953051 0.0956748 0.0945127 0.0929188 0.0881479 0.0842448 0.079792 0.0789496 0.0794296 0.079006 0.0793309 0.0800623 0.0761688 0.0681193 0.0604447 0.0545616 0.0518972 0.0501245 0.0469465 0.0424193 0.0397423 0.0374161 0.0357303 0.0341868 0.0329615 0.0321325 0.0321638 0.0333146 0.0332634 0.0329396 0.0323578 0.0297574 0.0269865 0.0252078 0.0237026 0.0231835 0.022141 0.0200997 0.0183753 0.0173077 0.0174818 0.0174224 0.0170494 0.0170698 0.0167436 0.0159895 0.0157862 0.0162472 0.0165585 0.0167098 0.0167557 0.0163819 0.0165546 0.018785 0.0246255 0.0305272
285.53 0.00025 0.116152 0.171624 0.263781 0.274286 0.280833 0.272362 0.257466 0.251557 0.234446 0.212357 0.195138 0.179091 0.169185 0.184443 0.198973 0.19613 0.190469 0.176845 0.169376 0.175459 0.185345 0.187308 0.195068 0.199846 0.201102 0.204821 0.208937 0.21102 0.198407 0.185369 0.183859 0.182992 0.173859 0.165371 0.162076 0.154654 0.151617 0.148455 0.140843 0.128146 0.116319 0.108317 0.103836 0.0994319 0.0949242 0.0955084 0.0943292 0.09289 0.0880827 0.0840004 0.0793332 0.078468 0.079278 0.078922 0.0789537 0.0798459 0.076054 0.0680741 0.060467 0.0544918 0.051772 0.0501123 0.0470216 0.0425387 0.0398048 0.0374835 0.035792 0.034159 0.0329428 0.0321326 0.032142 0.0332776 0.0332594 0.0329551 0.0323681 0.0297456 0.026973 0.0252034 0.0237195 0.0232004 0.0221526 0.0201071 0.0183652 0.0172823 0.0174494 0.0174136 0.0170548 0.0170585 0.0167429 0.0159933 0.0157799 0.0162317 0.0165426 0.0166982 0.0167518 0.0163796 0.0165465 0.0187698 0.0246104 0.0305138
285.5325 0.00025 0.115845 0.170827 0.263016 0.273975 0.280254 0.271431 0.257746 0.250535 0.234568 0.212325 0.194207 0.178118 0.168678 0.183701 0.198662 0.196021 0.18981 0.176805 0.169543 0.17572 0.185558 0.18747 0.195171 0.199418 0.200587 0.20439 0.208602 0.210858 0.198895 0.185819 0.184111 0.182846 0.173417 0.165361 0.16245 0.155155 0.151718 0.148098 0.140468 0.128023 0.116225 0.108208 0.103821 0.0991462 0.0945371 0.0953255 0.0941517 0.0928634 0.0880198 0.083754 0.0788714 0.0779903 0.0791133 0.0788315 0.0785827 0.0796217 0.0759314 0.0680191 0.0604834 0.0544288 0.0516592 0.050098 0.0470883 0.0426595 0.0398684 0.037546 0.0358552 0.0341303 0.0329232 0.0321325 0.0321214 0.0332383 0.0332536 0.0329712 0.0323781 0.029733 0.0269603 0.0251989 0.0237366 0.0232172 0.0221643 0.0201149 0.0183569 0.0172579 0.0174156 0.0174036 0.017061 0.0170466 0.0167412 0.0159976 0.0157738 0.0162167 0.0165275 0.0166865 0.0167473 0.0163773 0.0165387 0.0187547 0.0245953 0.0305003
285.535 0.00025 0.115557 0.170002 0.262013 0.273933 0.279884 0.270509 0.258033 0.249398 0.234502 0.212212 0.19326 0.177077 0.168233 0.183042 0.198211 0.195903 0.189205 0.176765 0.169716 0.176014 0.185787 0.187544 0.195201 0.199082 0.200157 0.20384 0.208192 0.210634 0.199356 0.186301 0.184389 0.182685 0.172964 0.165318 0.162796 0.155655 0.151851 0.147744 0.140075 0.127909 0.116135 0.108085 0.103817 0.0988625 0.0941485 0.0951274 0.0939834 0.0928383 0.087957 0.0835047 0.0784096 0.0775189 0.0789375 0.0787328 0.0782174 0.0793876 0.0758028 0.0679534 0.0604911 0.0543711 0.0515582 0.0500838 0.0471495 0.0427824 0.0399334 0.0376043 0.0359201 0.0341018 0.0329031 0.0321319 0.032102 0.0331972 0.033246 0.0329882 0.0323876 0.0297199 0.0269481 0.0251942 0.0237537 0.0232339 0.0221759 0.020123 0.0183506 0.0172347 0.0173804 0.0173922 0.0170678 0.0170344 0.0167383 0.0160022 0.015768 0.0162022 0.0165134 0.016675 0.0167421 0.0163749 0.0165312 0.0187397 0.0245802 0.0304868
285.5375 0.00025 0.115306 0.169191 0.260756 0.274104 0.279751 0.269625 0.258263 0.24821 0.234228 0.212005 0.192304 0.175994 0.167826 0.182449 0.197632 0.195762 0.188671 0.176721 0.169907 0.176325 0.18602 0.187547 0.195147 0.198811 0.199823 0.203181 0.207701 0.210351 0.19978 0.186808 0.184699 0.182521 0.172513 0.165237 0.163109 0.156149 0.15201 0.147399 0.139659 0.127805 0.116048 0.107949 0.103817 0.0985791 0.0937586 0.0949118 0.093823 0.0928087 0.0878957 0.0832546 0.0779475 0.0770562 0.0787502 0.078625 0.0778621 0.0791448 0.0756714 0.0678784 0.060491 0.0543174 0.0514679 0.050071 0.0472036 0.0429063 0.0399995 0.0376592 0.0359853 0.0340732 0.0328814 0.0321307 0.0320838 0.033154 0.0332361 0.0330053 0.0323964 0.0297063 0.0269367 0.0251894 0.0237706 0.0232503 0.0221873 0.0201314 0.0183458 0.0172129 0.0173439 0.0173794 0.0170752 0.0170217 0.0167341 0.016007 0.0157625 0.0161882 0.0165 0.0166635 0.0167364 0.0163724 0.0165241 0.0187248 0.0245651 0.0304734
285.54 0.00025 0.115091 0.168417 0.259288 0.274439 0.279885 0.268822 0.258391 0.247006 0.233744 0.211679 0.191329 0.174903 0.167432 0.181888 0.196927 0.195579 0.188212 0.176666 0.170123 0.176658 0.186241 0.1875 0.195022 0.198585 0.199594 0.202437 0.207121 0.210003 0.200154 0.187331 0.185041 0.182355 0.172068 0.165115 0.163388 0.156633 0.152193 0.147072 0.139225 0.127716 0.115971 0.107805 0.10382 0.098301 0.0933734 0.0946823 0.0936724 0.0927737 0.0878342 0.0830046 0.0774877 0.0766017 0.0785519 0.0785065 0.0775151 0.0788896 0.0755369 0.0677928 0.0604815 0.0542675 0.0513871 0.0500598 0.0472537 0.0430317 0.0400669 0.0377115 0.0360502 0.0340453 0.0328581 0.0321292 0.0320675 0.0331095 0.0332242 0.0330228 0.0324046 0.0296924 0.026926 0.0251846 0.0237872 0.0232665 0.0221987 0.0201402 0.0183426 0.0171925 0.0173063 0.017365 0.017083 0.0170088 0.0167287 0.0160122 0.0157573 0.0161747 0.0164877 0.0166523 0.0167301 0.0163698 0.0165173 0.01871 0.0245499 0.0304599
285.5425 0.00025 0.114905 0.167685 0.257651 0.274887 0.280319 0.268135 0.258359 0.245832 0.233062 0.211222 0.190343 0.173844 0.167043 0.181356 0.196115 0.195333 0.187839 0.176597 0.170376 0.177016 0.186434 0.187413 0.19485 0.198377 0.199468 0.201647 0.206448 0.209586 0.200476 0.187856 0.18541 0.182186 0.171635 0.164951 0.163632 0.157106 0.152396 0.146767 0.138773 0.127639 0.115902 0.107654 0.103818 0.0980274 0.0929955 0.0944394 0.0935301 0.0927316 0.0877726 0.0827547 0.0770318 0.0761559 0.078343 0.0783756 0.0771782 0.0786225 0.0754019 0.0676992 0.0604646 0.0542205 0.0513158 0.0500525 0.0473002 0.0431578 0.0401358 0.0377614 0.0361144 0.0340191 0.0328333 0.032127 0.0320527 0.0330636 0.0332098 0.0330401 0.0324123 0.0296785 0.0269161 0.0251799 0.0238035 0.0232824 0.02221 0.0201495 0.018341 0.0171736 0.0172678 0.0173491 0.0170911 0.0169958 0.0167221 0.0160175 0.0157524 0.0161615 0.0164761 0.0166414 0.0167232 0.016367 0.0165107 0.0186953 0.0245346 0.0304464
285.545 0.00025 0.114751 0.167022 0.255924 0.275408 0.281045 0.267609 0.258138 0.244706 0.232212 0.210619 0.189342 0.172833 0.166655 0.180818 0.195197 0.195017 0.187557 0.176521 0.170669 0.177398 0.186575 0.1873 0.194652 0.198159 0.199429 0.200848 0.205676 0.209093 0.20074 0.18837 0.185805 0.182016 0.171221 0.164744 0.163837 0.15756 0.152614 0.14649 0.138307 0.127574 0.115847 0.107504 0.103809 0.0977597 0.0926258 0.0941832 0.0933942 0.0926804 0.0877085 0.0825064 0.0765821 0.0757208 0.0781224 0.0782306 0.0768511 0.0783422 0.0752669 0.0675967 0.0604377 0.0541748 0.0512514 0.0500476 0.0473443 0.0432847 0.0402041 0.0378094 0.036177 0.0339946 0.032806 0.0321235 0.0320393 0.0330164 0.0331931 0.0330572 0.0324192 0.0296645 0.0269069 0.0251755 0.0238191 0.023298 0.0222211 0.0201591 0.0183407 0.0171563 0.0172286 0.0173316 0.0170995 0.0169827 0.0167143 0.016023 0.0157476 0.0161488 0.0164654 0.0166306 0.0167157 0.0163639 0.0165044 0.0186806 0.0245193 0.030433
285.5475 0.00025 0.114623 0.166446 0.254179 0.275984 0.282046 0.267261 0.257745 0.243619 0.231235 0.209841 0.18832 0.171895 0.166284 0.180254 0.194195 0.194614 0.187358 0.176443 0.171001 0.177805 0.186642 0.187168 0.194448 0.197916 0.199452 0.200086 0.204812 0.208517 0.200955 0.188867 0.18622 0.181848 0.170829 0.16449 0.164002 0.157992 0.152843 0.146243 0.137832 0.127514 0.115807 0.107358 0.103789 0.0974977 0.0922718 0.093918 0.0932668 0.0926183 0.0876418 0.0822609 0.0761409 0.0752979 0.0778947 0.078073 0.0765359 0.0780506 0.0751312 0.0674878 0.0604026 0.0541298 0.0511922 0.0500459 0.0473871 0.0434128 0.0402737 0.0378574 0.0362376 0.0339724 0.0327764 0.0321183 0.0320273 0.0329686 0.0331737 0.0330735 0.0324252 0.0296504 0.0268986 0.0251714 0.023834 0.0233132 0.0222321 0.0201693 0.0183418 0.0171407 0.0171888 0.0173126 0.017108 0.0169697 0.0167052 0.0160286 0.0157432 0.0161364 0.0164556 0.0166202 0.0167077 0.0163606 0.0164984 0.0186661 0.0245039 0.0304195
285.55 0.00025 0.114519 0.165962 0.252466 0.276574 0.283297 0.26711 0.257182 0.242557 0.230182 0.208874 0.187275 0.171025 0.165938 0.179638 0.193124 0.194127 0.187231 0.176374 0.171371 0.178237 0.186627 0.187026 0.194243 0.197648 0.199505 0.199397 0.203855 0.207842 0.201118 0.189335 0.186644 0.181681 0.170462 0.164194 0.164131 0.158401 0.153076 0.146026 0.137359 0.127461 0.115787 0.107223 0.103752 0.0972394 0.0919383 0.0936449 0.0931427 0.0925438 0.0875719 0.0820182 0.0757091 0.0748863 0.077657 0.0779 0.0762307 0.0777468 0.0749959 0.0673739 0.0603596 0.0540865 0.0511371 0.0500479 0.0474308 0.0435419 0.0403437 0.0379042 0.0362958 0.0339536 0.0327449 0.0321122 0.0320167 0.0329203 0.0331521 0.0330889 0.0324304 0.0296366 0.0268913 0.0251677 0.023848 0.023328 0.0222427 0.0201799 0.018344 0.0171268 0.0171487 0.017292 0.0171164 0.016957 0.0166949 0.0160343 0.015739 0.0161245 0.0164466 0.0166103 0.0166992 0.0163571 0.0164927 0.0186517 0.0244886 0.0304061
285.5525 0.00025 0.114427 0.165557 0.250845 0.277135 0.28475 0.267169 0.256462 0.241506 0.229103 0.207717 0.186203 0.170234 0.165628 0.178954 0.192 0.193561 0.187152 0.176333 0.171778 0.178688 0.186524 0.186884 0.194039 0.197353 0.199548 0.198817 0.202826 0.207061 0.201231 0.189771 0.187069 0.181519 0.170121 0.163855 0.164219 0.158785 0.153306 0.145838 0.136894 0.127407 0.115791 0.107107 0.1037 0.0969812 0.0916244 0.0933668 0.0930209 0.0924561 0.0874969 0.0817784 0.0752873 0.0744857 0.077412 0.0777128 0.0759362 0.0774319 0.0748595 0.0672558 0.0603076 0.0540439 0.0510842 0.0500536 0.0474773 0.0436715 0.0404139 0.0379504 0.0363507 0.0339373 0.0327108 0.0321035 0.0320071 0.032872 0.0331278 0.033103 0.0324344 0.0296228 0.0268848 0.0251646 0.0238612 0.0233423 0.0222532 0.020191 0.0183474 0.0171146 0.0171083 0.0172698 0.0171246 0.0169445 0.0166833 0.0160399 0.0157352 0.0161129 0.0164384 0.0166006 0.0166901 0.0163534 0.0164873 0.0186374 0.0244731 0.0303927
285.555 0.00025 0.114345 0.165243 0.249358 0.277658 0.286369 0.267467 0.255577 0.240441 0.228032 0.20638 0.185089 0.16952 0.165359 0.178206 0.190838 0.192926 0.187088 0.176341 0.172215 0.179153 0.186337 0.186743 0.193824 0.197048 0.199552 0.19836 0.20175 0.20617 0.201289 0.190178 0.18748 0.181357 0.1698 0.163477 0.164265 0.15914 0.153532 0.145681 0.136447 0.12735 0.115815 0.107014 0.103628 0.0967224 0.0913326 0.0930861 0.0928984 0.0923549 0.0874161 0.0815427 0.0748789 0.0740994 0.0771589 0.0775115 0.0756511 0.0771076 0.0747212 0.0671353 0.0602475 0.0540021 0.0510315 0.0500608 0.0475276 0.0438021 0.0404839 0.0379971 0.0364027 0.0339243 0.0326749 0.0320928 0.0319984 0.0328238 0.0331013 0.0331156 0.0324375 0.0296094 0.0268792 0.0251621 0.0238734 0.0233561 0.0222633 0.0202026 0.018352 0.0171042 0.0170678 0.0172461 0.0171326 0.0169324 0.0166706 0.0160456 0.0157316 0.0161016 0.0164309 0.0165915 0.0166807 0.0163493 0.0164821 0.0186233 0.0244576 0.0303794
285.5575 0.00025 0.114265 0.165003 0.248037 0.278121 0.288118 0.268002 0.254543 0.239363 0.227004 0.204883 0.183909 0.168873 0.16513 0.177397 0.189656 0.192226 0.18701 0.176412 0.172678 0.179622 0.186088 0.186613 0.193583 0.196735 0.199504 0.19803 0.200662 0.205161 0.201278 0.190556 0.187874 0.1812 0.169497 0.163065 0.164267 0.159464 0.153747 0.145548 0.136025 0.127284 0.115867 0.106949 0.103536 0.0964621 0.0910643 0.0928061 0.092773 0.092239 0.0873278 0.0813096 0.0744844 0.0737274 0.0768994 0.0772976 0.075374 0.0767755 0.0745805 0.0670149 0.0601807 0.0539596 0.0509784 0.050068 0.0475816 0.0439323 0.0405547 0.0380437 0.0364518 0.033915 0.0326374 0.0320796 0.0319904 0.0327764 0.0330729 0.0331266 0.0324393 0.0295963 0.0268746 0.0251605 0.0238847 0.0233694 0.0222731 0.0202146 0.0183576 0.0170955 0.0170275 0.017221 0.01714 0.0169206 0.0166567 0.016051 0.0157282 0.0160906 0.0164242 0.0165828 0.0166708 0.0163449 0.0164771 0.0186093 0.0244421 0.030366
285.56 0.00025 0.114194 0.164845 0.246897 0.278521 0.289942 0.268768 0.25338 0.238258 0.226018 0.203272 0.182655 0.168301 0.164941 0.176542 0.188457 0.191475 0.186889 0.176559 0.17316 0.180076 0.185801 0.186497 0.193304 0.196424 0.19939 0.197804 0.1996 0.204036 0.20119 0.190907 0.188236 0.181049 0.169208 0.162628 0.164221 0.159757 0.153943 0.145438 0.135637 0.12721 0.115944 0.106917 0.103423 0.0961974 0.0908168 0.0925329 0.0926448 0.0921091 0.0872317 0.0810804 0.0741053 0.0733709 0.0766322 0.0770712 0.075106 0.0764373 0.0744375 0.0668954 0.0601064 0.0539168 0.0509239 0.0500748 0.0476417 0.0440641 0.0406267 0.0380897 0.0364981 0.0339086 0.0325984 0.0320631 0.031983 0.0327297 0.0330419 0.0331351 0.0324398 0.0295835 0.0268709 0.0251596 0.0238948 0.0233819 0.0222825 0.020227 0.0183642 0.0170884 0.0169874 0.0171945 0.0171468 0.0169093 0.0166418 0.0160563 0.0157252 0.0160799 0.0164183 0.0165746 0.0166605 0.0163402 0.0164724 0.0185953 0.0244265 0.0303527
285.5625 0.00025 0.114126 0.164758 0.245921 0.278824 0.291788 0.269751 0.25212 0.237129 0.225074 0.2016 0.181323 0.167799 0.164787 0.175653 0.187245 0.190685 0.186704 0.176778 0.173661 0.180509 0.185498 0.186392 0.192967 0.196108 0.199217 0.197657 0.198606 0.202807 0.201002 0.191233 0.188564 0.180906 0.16893 0.162172 0.164119 0.160014 0.154116 0.145348 0.135286 0.127122 0.116044 0.10692 0.103294 0.0959291 0.0905937 0.0922647 0.0925101 0.0919627 0.0871271 0.0808533 0.0737403 0.0730305 0.0763572 0.0768325 0.0748437 0.0760948 0.0742903 0.0667787 0.0600259 0.0538731 0.0508681 0.0500798 0.0477088 0.0441964 0.0407003 0.0381353 0.0365417 0.0339057 0.0325584 0.0320436 0.0319756 0.0326843 0.0330092 0.0331415 0.0324387 0.029571 0.0268682 0.0251599 0.0239038 0.0233936 0.0222916 0.0202398 0.0183719 0.017083 0.0169478 0.0171667 0.0171528 0.0168984 0.0166257 0.0160613 0.0157223 0.0160695 0.016413 0.016567 0.0166498 0.0163352 0.0164679 0.0185815 0.0244108 0.0303393
285.565 0.00025 0.114069 0.164742 0.245128 0.279058 0.293605 0.270916 0.250812 0.235962 0.224137 0.199911 0.179915 0.167356 0.164673 0.174745 0.186024 0.189874 0.186437 0.177054 0.174192 0.180913 0.185216 0.186303 0.192562 0.195776 0.199003 0.197553 0.197716 0.201492 0.200698 0.191529 0.188854 0.180772 0.168649 0.161706 0.163959 0.160233 0.154262 0.145274 0.13498 0.127022 0.116166 0.106961 0.103145 0.0956554 0.0903894 0.0920061 0.0923681 0.091802 0.0870136 0.08063 0.0733931 0.0727081 0.0760739 0.0765826 0.0745872 0.0757501 0.0741388 0.0666668 0.0599398 0.0538302 0.0508104 0.0500812 0.0477821 0.0443298 0.0407765 0.0381804 0.0365831 0.0339058 0.0325182 0.032021 0.0319677 0.0326402 0.032975 0.0331453 0.0324361 0.0295588 0.0268665 0.0251612 0.0239117 0.0234045 0.0223002 0.020253 0.0183807 0.0170791 0.0169087 0.0171377 0.017158 0.0168881 0.0166086 0.0160659 0.0157198 0.0160594 0.0164083 0.0165599 0.0166388 0.0163298 0.0164636 0.0185679 0.0243952 0.0303259
285.5675 0.00025 0.11403 0.1648 0.244516 0.279235 0.295345 0.272216 0.249505 0.234757 0.223179 0.198248 0.178453 0.166968 0.164595 0.173834 0.18479 0.189051 0.186074 0.177356 0.17476 0.18128 0.184979 0.186234 0.192081 0.195423 0.19876 0.197463 0.196947 0.200118 0.200259 0.191795 0.189107 0.180648 0.168369 0.161241 0.163735 0.160412 0.154378 0.145217 0.134719 0.126912 0.116304 0.107038 0.102986 0.0953805 0.0902049 0.0917585 0.0922165 0.0916263 0.0868912 0.0804089 0.0730617 0.0724041 0.0757822 0.0763235 0.0743342 0.0754043 0.0739834 0.0665603 0.0598487 0.0537864 0.0507502 0.050077 0.0478608 0.044464 0.0408561 0.0382246 0.0366227 0.0339087 0.032478 0.0319947 0.0319596 0.0325976 0.0329392 0.0331461 0.0324317 0.0295468 0.0268659 0.0251637 0.0239186 0.0234144 0.0223084 0.0202664 0.0183903 0.0170767 0.0168705 0.0171077 0.0171622 0.0168782 0.0165908 0.0160702 0.0157175 0.0160496 0.0164044 0.0165534 0.0166276 0.0163241 0.0164595 0.0185545 0.0243795 0.0303126
285.57 0.00025 0.114003 0.164918 0.244084 0.279393 0.296985 0.273592 0.248259 0.233519 0.22219 0.19665 0.176961 0.166619 0.164563 0.172944 0.183546 0.188244 0.185619 0.177656 0.175371 0.181605 0.184803 0.18619 0.191522 0.195038 0.198494 0.197367 0.196308 0.198722 0.199672 0.192023 0.189322 0.180536 0.168087 0.160783 0.163446 0.160544 0.154459 0.145172 0.134509 0.126793 0.116456 0.107154 0.102817 0.0951033 0.090039 0.0915207 0.0920549 0.0914351 0.0867565 0.0801882 0.0727471 0.0721213 0.0754828 0.0760557 0.0740845 0.0750589 0.0738226 0.0664599 0.0597516 0.0537412 0.0506879 0.0500666 0.0479456 0.0445983 0.0409385 0.0382676 0.0366605 0.0339139 0.0324381 0.0319651 0.0319497 0.0325569 0.0329021 0.0331439 0.0324254 0.029535 0.0268663 0.0251674 0.0239244 0.0234232 0.0223161 0.02028 0.0184011 0.0170757 0.0168332 0.0170765 0.0171653 0.0168688 0.016572 0.016074 0.0157156 0.01604 0.0164009 0.0165474 0.0166161 0.0163179 0.0164555 0.0185411 0.0243637 0.0302993
285.5725 0.00025 0.113991 0.165092 0.243828 0.279558 0.298522 0.274971 0.247128 0.232235 0.221125 0.195139 0.175476 0.166293 0.164575 0.172088 0.182298 0.187467 0.185062 0.177922 0.176037 0.181891 0.184705 0.186182 0.190881 0.194612 0.198207 0.197255 0.195792 0.197339 0.198937 0.192204 0.189504 0.180439 0.167806 0.160337 0.163085 0.160626 0.154502 0.145141 0.134349 0.126669 0.116618 0.1073 0.102642 0.0948268 0.0898906 0.091294 0.0918836 0.0912304 0.0866115 0.0799699 0.0724496 0.0718601 0.0751748 0.0757808 0.0738377 0.0747155 0.07366 0.0663662 0.0596507 0.0536958 0.0506237 0.0500489 0.048034 0.0447331 0.0410259 0.0383091 0.0366975 0.0339215 0.0323995 0.0319316 0.0319385 0.0325181 0.0328643 0.0331383 0.0324167 0.0295231 0.0268677 0.0251722 0.0239291 0.0234309 0.0223234 0.0202938 0.0184128 0.0170761 0.016797 0.0170443 0.0171672 0.0168598 0.0165525 0.0160773 0.0157138 0.0160306 0.0163981 0.0165421 0.0166044 0.0163114 0.0164517 0.0185279 0.0243478 0.030286
285.575 0.00025 0.113999 0.165313 0.243729 0.27976 0.299934 0.276286 0.246132 0.230905 0.219987 0.193714 0.174029 0.165969 0.164644 0.171281 0.181042 0.18674 0.184418 0.17812 0.176753 0.182142 0.184686 0.186219 0.190171 0.194139 0.197897 0.197117 0.195382 0.195999 0.198062 0.192324 0.189652 0.180342 0.16753 0.159908 0.162653 0.160652 0.154505 0.145123 0.134238 0.126542 0.116783 0.107475 0.102465 0.0945547 0.0897578 0.0910769 0.0917033 0.0910128 0.0864539 0.079753 0.0721685 0.0716206 0.0748578 0.0754982 0.0735917 0.0743748 0.0734936 0.0662791 0.0595465 0.0536504 0.0505572 0.0500233 0.0481262 0.0448693 0.0411175 0.0383497 0.036734 0.0339311 0.0323619 0.0318949 0.0319253 0.0324819 0.032826 0.0331295 0.0324061 0.0295115 0.0268704 0.0251785 0.0239331 0.0234375 0.0223303 0.0203077 0.0184255 0.0170778 0.0167621 0.0170114 0.0171679 0.0168513 0.0165324 0.0160799 0.0157123 0.0160214 0.0163957 0.0165374 0.0165927 0.0163045 0.0164481 0.0185149 0.0243319 0.0302726
285.5775 0.00025 0.114031 0.165572 0.243797 0.280032 0.301185 0.277501 0.245282 0.229527 0.218755 0.192388 0.172643 0.165616 0.164769 0.170537 0.179785 0.186081 0.183698 0.178223 0.17752 0.182371 0.184743 0.186308 0.189409 0.193618 0.197569 0.196952 0.195067 0.19473 0.197071 0.19237 0.189774 0.180248 0.167264 0.159497 0.162153 0.160616 0.154467 0.145117 0.134175 0.126419 0.11695 0.107671 0.102289 0.0942868 0.0896388 0.0908675 0.0915139 0.0907823 0.0862847 0.0795367 0.0719028 0.0714058 0.0745333 0.0752098 0.0733468 0.0740369 0.0733244 0.0661989 0.0594394 0.0536053 0.0504896 0.049989 0.048219 0.0450064 0.0412142 0.0383893 0.0367701 0.0339422 0.0323264 0.0318544 0.0319095 0.0324476 0.0327875 0.0331176 0.0323928 0.0294996 0.0268741 0.025186 0.0239364 0.0234427 0.0223367 0.0203218 0.0184393 0.0170807 0.0167285 0.0169777 0.0171673 0.0168432 0.0165116 0.0160819 0.015711 0.0160126 0.0163938 0.0165333 0.0165808 0.0162972 0.0164446 0.018502 0.0243159 0.0302593