285.5025 0.00025 -0.00221262 -0.0153473 0.0192245 0.0502194 0.0484906 0.0641377 0.058905 0.0589577 0.0518766 0.056371 0.0555077 0.0378684 0.0348407 0.043248 0.0473284 0.0454626 0.0482761 0.0505092 0.0513507 0.0500091 0.0429109 0.035511 0.0371291 0.0401165 0.0358535 0.026876 0.0118275 0.0047324 -0.000373832 -0.00184751 -0.00148172 0.000172345 0.00532785 0.00917219 0.0131675 0.0178284 0.0198209 0.0182802 0.0171437 0.0146328 0.0134716 0.0128851 0.0132591 0.0149253 0.0144351 0.0152135 0.0160127 0.0160556 0.0137119 0.0118765 0.0114231 0.0109495 0.0120822 0.0136756 0.0122494 0.0139551 0.0143999 0.012734 0.0138145 0.0119286 0.0115039 0.00999269 0.00782734 0.00685451 0.00586762 0.00507404 0.00513888 0.00440815 0.00292157 0.00197227 0.00144853 0.00113339 0.000948683 0.000981266 0.00100225 0.000816419 0.000620378 0.000601977 0.000510381 0.000384828 0.000322146 0.000198422 0.000222388 0.000410848 0.000520495 0.000658287 0.000533919 0.000278415 0.000209917 0.000229286 0.000195328 0.000124538 0.00011263 0.000168031 0.000163873 9.94572e-05 4.67337e-05 1.30574e-05 -8.96538e-06 1.14161e-05
285.505 0.00025 -0.00241413 -0.0156934 0.0192289 0.049364 0.0490919 0.0642448 0.0585244 0.0597043 0.0521085 0.0558385 0.0557817 0.0397128 0.0357419 0.0426124 0.0469446 0.0451208 0.0473588 0.0505571 0.0516393 0.0507865 0.0434193 0.0355942 0.0373282 0.0403226 0.0366137 0.0282489 0.0133622 0.00536096 8.28708e-05 -0.00154862 -0.00137857 0.000304396 0.00522511 0.00906954 0.0130582 0.0174818 0.0199241 0.0186707 0.0173382 0.0147797 0.0138136 0.0131201 0.0130952 0.0146598 0.0143983 0.0151237 0.0158206 0.0161497 0.0139614 0.012088 0.0114238 0.0108467 0.0118943 0.0136303 0.0123135 0.0138531 0.0143531 0.012525 0.0137726 0.011974 0.0115158 0.0100872 0.0079605 0.00689345 0.00588556 0.00504517 0.00511179 0.00446809 0.00297325 0.00200199 0.0014604 0.00112915 0.000934494 0.000967195 0.000990028 0.000806628 0.000618799 0.000606831 0.000515191 0.000388835 0.000331194 0.000208928 0.000220773 0.000400739 0.000503233 0.000647446 0.000543121 0.000287918 0.000208626 0.000228822 0.000196786 0.000125116 0.000109221 0.000164872 0.000162601 9.9346e-05 4.73602e-05 1.40381e-05 -8.21192e-06 1.19784e-05
285.5075 0.00025 -0.00264813 -0.0160341 0.0194903 0.0487213 0.0497033 0.064434 0.0581047 0.0601901 0.0526064 0.05521 0.0555405 0.041242 0.0370509 0.042126 0.0464872 0.0448366 0.0464248 0.0505204 0.0519306 0.0513864 0.0439249 0.0358532 0.0375836 0.0404115 0.0372323 0.0295535 0.0149234 0.00615996 0.00062733 -0.00127171 -0.00120617 0.000421549 0.00514374 0.0089377 0.0129454 0.0171218 0.0199611 0.0190754 0.0175634 0.014947 0.0141492 0.0133697 0.0129671 0.0143668 0.0143636 0.0150575 0.0156293 0.0162176 0.0142087 0.0123171 0.0114405 0.0107538 0.0117039 0.0135575 0.0123926 0.0137649 0.014311 0.0123288 0.0137036 0.0120252 0.0115366 0.0101684 0.00809546 0.00694257 0.00590868 0.00501625 0.00508111 0.00452432 0.00303006 0.00203136 0.00147318 0.00112554 0.000921722 0.000954052 0.000977975 0.000796283 0.000616469 0.000611868 0.000520151 0.000392505 0.000339369 0.000219509 0.000220341 0.000391372 0.000486862 0.000636057 0.000550977 0.000297447 0.000207827 0.000228198 0.000198215 0.000125825 0.000105925 0.00016162 0.000161281 9.92255e-05 4.79749e-05 1.49903e-05 -7.48163e-06 1.25266e-05
285.51 0.00025 -0.00291494 -0.0163324 0.0200271 0.0482612 0.0502125 0.064699 0.0576576 0.0603628 0.0533416 0.0546096 0.0549045 0.0423772 0.0386873 0.0418429 0.0459611 0.0446169 0.0454887 0.0503958 0.0522563 0.0518098 0.044402 0.0362926 0.0379087 0.0404265 0.0377001 0.0307941 0.0164774 0.00711591 0.00126771 -0.00102496 -0.000965075 0.000525588 0.00508786 0.0087842 0.0128208 0.0167613 0.019941 0.0194803 0.0178179 0.0151421 0.0144756 0.0136307 0.0128791 0.0140481 0.0143217 0.01501 0.0154413 0.0162588 0.0144516 0.0125617 0.0114753 0.0106691 0.0115113 0.0134571 0.0124804 0.0136904 0.014273 0.0121515 0.0136062 0.0120806 0.0115698 0.0102392 0.00823077 0.00700195 0.00593662 0.00498773 0.00504666 0.0045763 0.00309244 0.00206062 0.00148646 0.00112267 0.000910272 0.000941844 0.000966063 0.000785419 0.000613269 0.000616791 0.000525226 0.000395949 0.000346678 0.000230011 0.000221046 0.0003828 0.000471422 0.000624275 0.000557459 0.000306887 0.000207553 0.000227451 0.000199559 0.000126649 0.000102767 0.000158286 0.000159877 9.90643e-05 4.85613e-05 1.59202e-05 -6.73877e-06 1.30765e-05
285.5125 0.00025 -0.0031959 -0.016602 0.0208212 0.0480215 0.0506208 0.0650201 0.0572708 0.0602809 0.0542618 0.0541508 0.0540345 0.043102 0.0404222 0.0418204 0.0454024 0.0444748 0.0445917 0.0501596 0.0526045 0.0521086 0.0448326 0.0369013 0.0383045 0.0404033 0.0380041 0.0319868 0.0180055 0.00820272 0.00201565 -0.000792356 -0.000656001 0.000630269 0.00505841 0.00861208 0.0126707 0.0164066 0.0198603 0.0198713 0.018102 0.0153685 0.0147841 0.0138936 0.0128315 0.0137182 0.0142706 0.0149824 0.0152617 0.0162738 0.0146852 0.0128183 0.0115309 0.0105964 0.0113184 0.0133316 0.0125748 0.0136285 0.0142373 0.0119974 0.0134829 0.0121361 0.0116169 0.0103024 0.00836255 0.00707103 0.00597034 0.00496098 0.00500838 0.00462311 0.00316039 0.00209026 0.00150023 0.00112062 0.000900109 0.000930619 0.000954598 0.000774212 0.000609342 0.000621558 0.000530545 0.000399265 0.000353123 0.000240254 0.000222791 0.000375023 0.000456916 0.000612324 0.000562661 0.00031611 0.000207783 0.000226607 0.000200835 0.000127603 9.97397e-05 0.000154896 0.000158408 9.89045e-05 4.91765e-05 1.68537e-05 -5.98448e-06 1.36119e-05
285.515 0.00025 -0.00349291 -0.0168678 0.021814 0.048023 0.051033 0.0652663 0.0570158 0.0600162 0.0552156 0.0538157 0.0530697 0.0435373 0.0419838 0.0420526 0.0448521 0.0444162 0.0437955 0.0498016 0.0529422 0.0523232 0.0451951 0.0376572 0.0387717 0.0403894 0.0381681 0.033129 0.0195051 0.00939167 0.00286097 -0.000550909 -0.000292198 0.000748472 0.00504563 0.00843014 0.0124923 0.0160697 0.0197354 0.0202348 0.0184107 0.0156285 0.0150713 0.0141576 0.0128256 0.0133835 0.0141998 0.0149712 0.0150986 0.0162649 0.0149053 0.0130836 0.0116093 0.0105359 0.0111251 0.0131834 0.012671 0.0135777 0.0142024 0.0118667 0.013335 0.0121886 0.0116754 0.0103599 0.00848927 0.00714905 0.00601039 0.00493691 0.004966 0.0046641 0.00323365 0.0021207 0.00151422 0.0011194 0.00089095 0.000920324 0.000943409 0.000762682 0.000604722 0.000626081 0.000536137 0.000402503 0.000358753 0.000250079 0.000225481 0.000368065 0.00044337 0.000600394 0.000566547 0.000325027 0.000208518 0.000225665 0.000202029 0.000128656 9.6858e-05 0.000151417 0.000156872 9.86891e-05 4.97194e-05 1.77241e-05 -5.26074e-06 1.41407e-05
285.5175 0.00025 -0.00380009 -0.0171032 0.0229402 0.0482548 0.0514999 0.0653739 0.0568961 0.0596407 0.0561461 0.053632 0.0521723 0.043817 0.0432117 0.0425209 0.0443449 0.0444445 0.0431598 0.0493073 0.0532367 0.0525025 0.0455173 0.038525 0.0392895 0.0404221 0.0382144 0.0342012 0.0209827 0.0106405 0.0037917 -0.000271308 0.00012333 0.000899993 0.0050466 0.00824286 0.0122765 0.0157547 0.0195717 0.0205517 0.0187417 0.0159262 0.0153402 0.0144198 0.0128573 0.0130599 0.0141052 0.014971 0.0149554 0.0162303 0.015107 0.0133546 0.0117102 0.0104888 0.0109343 0.0130159 0.0127661 0.0135362 0.0141671 0.0117615 0.0131677 0.0122357 0.0117463 0.0104159 0.0086092 0.00723514 0.00605643 0.00491668 0.00491964 0.00469888 0.00331219 0.0021525 0.00152803 0.00111917 0.000882797 0.000910959 0.0009327 0.000751087 0.000599416 0.000630038 0.000541958 0.000405812 0.00036368 0.000259374 0.000228984 0.000361861 0.000430677 0.000588554 0.000569164 0.00033351 0.000209773 0.000224641 0.000203118 0.000129817 9.4122e-05 0.000147889 0.000155267 9.84583e-05 5.02619e-05 1.86156e-05 -4.549e-06 1.46301e-05
285.52 0.00025 -0.00411194 -0.0173176 0.0241433 0.0487121 0.0520184 0.0652774 0.056939 0.0592788 0.0569402 0.0535716 0.0514198 0.0440613 0.0440314 0.0431393 0.0439162 0.0445453 0.0427297 0.0486853 0.0534677 0.0526666 0.0458502 0.0394711 0.0398209 0.0405274 0.0381709 0.0351959 0.022462 0.0119084 0.00478721 7.5429e-05 0.000577865 0.00110525 0.00505262 0.00806075 0.0120295 0.0154598 0.0193802 0.0208144 0.0190891 0.0162618 0.0155867 0.0146782 0.0129226 0.0127548 0.0139817 0.0149777 0.0148352 0.0161746 0.0152903 0.0136268 0.0118347 0.0104564 0.0107464 0.0128326 0.0128581 0.013502 0.0141303 0.0116808 0.0129863 0.0122739 0.0118258 0.0104723 0.00872131 0.00732785 0.00610916 0.00490182 0.00486905 0.00472703 0.00339542 0.00218635 0.00154168 0.00112012 0.000875391 0.000902501 0.000922413 0.000739375 0.000593563 0.0006335 0.00054801 0.00040914 0.00036789 0.00026805 0.000233196 0.000356492 0.000418865 0.000577043 0.00057067 0.000341522 0.00021151 0.000223586 0.000204114 0.000131086 9.15278e-05 0.0001443 0.000153588 9.82015e-05 5.078e-05 1.94545e-05 -3.84954e-06 1.51388e-05
285.5225 0.00025 -0.00441609 -0.0174839 0.0253817 0.0494196 0.0525945 0.0650283 0.0571155 0.0589668 0.0574886 0.053689 0.0508701 0.0443027 0.0444975 0.0436992 0.0435843 0.044694 0.042528 0.0479632 0.0535808 0.0528589 0.0462324 0.0404582 0.0403368 0.0407098 0.0380778 0.0360904 0.0239401 0.0131666 0.00582158 0.000522238 0.00106743 0.00137822 0.00505487 0.00788605 0.0117564 0.015181 0.0191619 0.0210179 0.0194505 0.0166285 0.0158118 0.0149277 0.0130178 0.0124803 0.0138303 0.0149871 0.0147415 0.0161002 0.0154518 0.0139003 0.0119831 0.0104393 0.0105636 0.0126363 0.0129431 0.0134719 0.0140916 0.011625 0.0127965 0.0123002 0.0119122 0.0105327 0.00882507 0.00742519 0.00616774 0.00489356 0.00481429 0.0047486 0.0034827 0.00222281 0.00155518 0.00112214 0.00086877 0.000894918 0.000912581 0.000727822 0.000587111 0.000636299 0.000554333 0.000412648 0.000371501 0.000276014 0.000237957 0.000351905 0.000407878 0.00056592 0.000571092 0.000348931 0.000213687 0.000222541 0.000205033 0.000132434 8.90843e-05 0.000140701 0.000151845 9.79043e-05 5.127e-05 2.02934e-05 -3.16427e-06 1.56286e-05
285.525 0.00025 -0.00470706 -0.0176222 0.0266068 0.0503637 0.0532306 0.0646912 0.0574226 0.0587862 0.0577452 0.0539593 0.0505671 0.0445573 0.0447388 0.0440561 0.0433588 0.0448745 0.042583 0.0472162 0.0535216 0.0530981 0.0466888 0.0414756 0.0408276 0.0409715 0.037966 0.0368767 0.0254332 0.0143838 0.00687256 0.0010932 0.00159434 0.00173131 0.00505228 0.00771626 0.0114667 0.0149154 0.0189249 0.0211564 0.0198185 0.0170259 0.016022 0.0151636 0.0131412 0.0122475 0.0136517 0.0149928 0.0146767 0.016007 0.0155858 0.0141699 0.0121523 0.0104394 0.0103874 0.0124304 0.0130182 0.0134453 0.0140517 0.0115913 0.0126024 0.0123152 0.0120025 0.0105996 0.00891983 0.00752569 0.00623329 0.0048932 0.00475583 0.00476302 0.00357303 0.00226202 0.00156855 0.00112565 0.000862703 0.000888062 0.000903151 0.000716506 0.000580196 0.000638298 0.000560861 0.000416296 0.000374563 0.000283255 0.000243105 0.000348055 0.000397677 0.00055533 0.000570562 0.000355695 0.000216284 0.000221495 0.00020583 0.000133862 8.67951e-05 0.000137073 0.000150065 9.75899e-05 5.17127e-05 2.10973e-05 -2.47999e-06 1.61142e-05
285.5275 0.00025 -0.00497803 -0.0177632 0.0277923 0.0515014 0.0539195 0.0642899 0.0578438 0.0587718 0.0577464 0.0543758 0.0505325 0.0448633 0.0448967 0.0441076 0.0432493 0.0450539 0.0428721 0.0465242 0.0532412 0.0533792 0.0472552 0.0425171 0.0412878 0.0413083 0.0378786 0.0375425 0.0269368 0.0155427 0.00791381 0.00179494 0.00216331 0.00217148 0.00504218 0.00754747 0.0111725 0.0146583 0.0186746 0.0212329 0.0201876 0.017448 0.0162237 0.0153886 0.0132895 0.0120617 0.0134468 0.0149898 0.0146361 0.0158991 0.0156943 0.0144367 0.0123416 0.0104576 0.010219 0.0122177 0.013083 0.013421 0.0140083 0.0115793 0.0124118 0.0123185 0.0120942 0.0106743 0.00900671 0.00762853 0.00630563 0.00490092 0.00469388 0.00476991 0.00366612 0.00230484 0.00158189 0.00113023 0.000857339 0.000881977 0.000894156 0.000705589 0.000572841 0.000639505 0.000567606 0.000420198 0.000377197 0.000289756 0.000248518 0.000344974 0.000388272 0.000545308 0.000569165 0.000361773 0.000219238 0.000220474 0.000206506 0.000135386 8.46789e-05 0.000133409 0.000148185 9.72307e-05 5.2125e-05 2.18807e-05 -1.77962e-06 1.66035e-05
285.53 0.00025 -0.00522252 -0.0178773 0.0289441 0.0528603 0.0546654 0.0639099 0.0583706 0.0588952 0.0575133 0.0548781 0.0507957 0.0451854 0.0450446 0.0438172 0.0432514 0.0452241 0.043371 0.0459622 0.0526975 0.0537009 0.0479517 0.0435683 0.041713 0.0416834 0.0378403 0.0381158 0.02845 0.016636 0.00892405 0.00262381 0.00277782 0.00270547 0.00503173 0.00737225 0.0108889 0.0144049 0.0184173 0.0212516 0.0205496 0.0178893 0.0164191 0.0155989 0.0134598 0.0119263 0.0132235 0.0149753 0.0146236 0.0157804 0.0157726 0.014697 0.0125499 0.0104966 0.0100596 0.0120012 0.0131366 0.0133945 0.0139613 0.0115851 0.0122272 0.0123098 0.0121838 0.0107578 0.00908724 0.00773021 0.00638366 0.00491823 0.00462969 0.00476914 0.00376074 0.00235145 0.00159565 0.00113591 0.000852544 0.000876325 0.000885569 0.000695285 0.000565179 0.000639828 0.000574484 0.000424356 0.000379503 0.000295551 0.000254064 0.00034257 0.000379641 0.000535932 0.000567042 0.000367095 0.000222505 0.000219531 0.000207079 0.00013696 8.27113e-05 0.00012974 0.000146238 9.68403e-05 5.25175e-05 2.26271e-05 -1.1e-06 1.70646e-05
285.5325 0.00025 -0.00545475 -0.0179744 0.0300312 0.0543684 0.0555171 0.0634919 0.059014 0.0591071 0.0571175 0.0554397 0.0513588 0.0455455 0.0452665 0.0432127 0.0432802 0.0453756 0.0440329 0.045612 0.0519012 0.05404 0.0487836 0.0446421 0.042118 0.0420719 0.0378716 0.0386027 0.0299567 0.0176694 0.00987865 0.00357379 0.00344933 0.0033376 0.00503045 0.00719211 0.0106227 0.0141503 0.0181508 0.0212211 0.0208935 0.0183429 0.0166087 0.0157912 0.0136506 0.0118395 0.0129883 0.014942 0.0146326 0.0156544 0.0158209 0.0149481 0.0127737 0.010555 0.00991129 0.0117835 0.0131784 0.0133653 0.0139094 0.0116081 0.0120544 0.0122899 0.012268 0.0108504 0.00916293 0.00783088 0.00646857 0.00494517 0.0045645 0.00476019 0.00385576 0.00240205 0.00160964 0.00114275 0.000848538 0.000871148 0.000877289 0.000685621 0.000557255 0.000639119 0.00058135 0.000428798 0.000381471 0.000300587 0.000259557 0.000340769 0.000371719 0.000527203 0.000564322 0.000371642 0.000226024 0.000218659 0.000207524 0.0001386 8.09142e-05 0.000126092 0.00014424 9.6417e-05 5.28548e-05 2.33714e-05 -4.02674e-07 1.7543e-05
285.535 0.00025 -0.00565304 -0.018052 0.0310344 0.0560434 0.0564555 0.0630433 0.0597285 0.0594307 0.0567321 0.0560108 0.0522258 0.0459922 0.0455637 0.0424295 0.0432648 0.0454989 0.0448061 0.0455064 0.0508924 0.0543468 0.049749 0.0457313 0.0425248 0.0424456 0.0379929 0.0390243 0.0314338 0.0186723 0.0107627 0.00462403 0.00417226 0.00405911 0.00505113 0.00699872 0.0103793 0.0138885 0.01788 0.0211548 0.0212105 0.018799 0.0168002 0.0159652 0.0138615 0.0118007 0.012752 0.0148916 0.014663 0.0155241 0.0158384 0.0151885 0.0130112 0.0106347 0.00977411 0.0115676 0.0132073 0.0133325 0.013852 0.0116439 0.0118954 0.0122613 0.0123459 0.0109494 0.00923573 0.00792759 0.00655952 0.00498204 0.00449938 0.00474278 0.00395014 0.0024573 0.00162487 0.00115041 0.000845451 0.000866247 0.000869313 0.000676855 0.000549217 0.000637514 0.000588296 0.000433527 0.000383218 0.000305012 0.000264942 0.000339503 0.000364562 0.000519162 0.000561112 0.000375377 0.000229713 0.000217896 0.000207859 0.000140314 7.92905e-05 0.000122453 0.000142198 9.59778e-05 5.31802e-05 2.40952e-05 2.60928e-07 1.79707e-05
285.5375 0.00025 -0.00582421 -0.0181091 0.0318856 0.0577444 0.0574523 0.0626013 0.0605069 0.0598899 0.0564975 0.0565452 0.0533287 0.0465327 0.0458789 0.041555 0.0431578 0.0455902 0.0456439 0.0456698 0.0497515 0.0545637 0.0508371 0.0468343 0.0429364 0.0427847 0.0382061 0.0394037 0.0328615 0.0196782 0.0115789 0.00575924 0.00495018 0.00486539 0.00510897 0.00678954 0.0101664 0.013619 0.0176091 0.021067 0.0214897 0.0192524 0.016995 0.0161157 0.0140895 0.0118098 0.0125236 0.0148216 0.0147046 0.0153925 0.015826 0.0154153 0.0132622 0.0107373 0.00965152 0.0113556 0.0132239 0.013295 0.0137879 0.0116897 0.0117533 0.0122271 0.0124159 0.0110543 0.0093071 0.00801999 0.00665586 0.00502994 0.00443573 0.00471656 0.00404283 0.00251737 0.00164147 0.00115884 0.000843275 0.000861487 0.000861575 0.000668955 0.000541167 0.000634881 0.000595116 0.000438542 0.000384801 0.000308876 0.000270142 0.000338737 0.000358138 0.000511775 0.000557591 0.000378332 0.000233516 0.00021722 0.000208063 0.00014208 7.78283e-05 0.000118834 0.000140102 9.55046e-05 5.34726e-05 2.47821e-05 9.28952e-07 1.84154e-05
285.54 0.00025 -0.00596624 -0.0181667 0.0326114 0.0593755 0.0584486 0.0621675 0.0612681 0.0604669 0.0564991 0.0570437 0.0546034 0.0472217 0.0461803 0.0407092 0.0428959 0.0456446 0.0465012 0.0460646 0.0486036 0.0546453 0.0520181 0.0479681 0.0433761 0.0430936 0.0385145 0.039771 0.0342065 0.0207163 0.0123295 0.0069435 0.00577696 0.00574404 0.00522054 0.00657793 0.00998388 0.0133446 0.0173352 0.0209657 0.0217219 0.0196946 0.0171944 0.0162404 0.0143342 0.0118611 0.0123131 0.0147322 0.0147564 0.01526 0.0157848 0.0156262 0.0135213 0.0108605 0.00954417 0.0111478 0.0132293 0.0132523 0.0137179 0.0117443 0.0116309 0.01219 0.0124757 0.0111622 0.00937932 0.00810716 0.00675693 0.00508732 0.00437571 0.0046816 0.00413208 0.0025825 0.0016597 0.00116798 0.000842388 0.000856684 0.000853864 0.000661991 0.00053329 0.000631319 0.000601772 0.00044389 0.000386254 0.000312194 0.000275014 0.000338273 0.000352454 0.000505056 0.000553842 0.000380501 0.000237357 0.000216677 0.000208157 0.000143884 7.65203e-05 0.000115242 0.000137952 9.50021e-05 5.37219e-05 2.54403e-05 1.60629e-06 1.88595e-05
285.5425 0.00025 -0.00608533 -0.0182019 0.0331553 0.0607998 0.059448 0.0618148 0.0619914 0.0611755 0.0568083 0.0575068 0.0559975 0.0481114 0.0464051 0.03999 0.0424938 0.0456662 0.0473616 0.0466361 0.0475544 0.0545804 0.0532464 0.0491373 0.0438555 0.0433756 0.0389111 0.0401332 0.0354605 0.0218151 0.0130365 0.00815566 0.0066368 0.00667593 0.00539989 0.00637403 0.00982419 0.0130667 0.0170605 0.0208568 0.0219029 0.0201227 0.0174043 0.0163446 0.0145884 0.0119491 0.0121272 0.0146264 0.0148112 0.0151324 0.0157181 0.0158195 0.0137889 0.011005 0.00945401 0.0109468 0.0132227 0.0132052 0.0136403 0.0118044 0.011528 0.0121529 0.0125246 0.0112705 0.00945422 0.00818847 0.00686163 0.00515475 0.00432103 0.00463811 0.00421644 0.00265287 0.00167999 0.00117746 0.00084288 0.000851977 0.000846317 0.000655987 0.000525687 0.000626796 0.000608165 0.000449543 0.00038764 0.000315104 0.000279511 0.000338098 0.000347486 0.000498929 0.000549977 0.000381854 0.000241153 0.000216289 0.000208118 0.000145719 7.53892e-05 0.000111704 0.000135774 9.44663e-05 5.39494e-05 2.60811e-05 2.29087e-06 1.9284e-05
285.545 0.00025 -0.00619308 -0.0181975 0.0335697 0.0619258 0.0604448 0.0616183 0.0626475 0.0620594 0.0574697 0.0579522 0.0573998 0.049173 0.0465757 0.0394394 0.0419573 0.0456179 0.048211 0.0473146 0.0466896 0.0543974 0.0544586 0.0503384 0.0443845 0.0436622 0.03938 0.040495 0.0366052 0.0230003 0.01373 0.00936418 0.00752094 0.00764889 0.00565488 0.00619177 0.00967949 0.0127923 0.0167842 0.0207427 0.0220259 0.0205213 0.0176228 0.0164223 0.0148508 0.0120723 0.011971 0.0145047 0.0148652 0.0150053 0.0156303 0.0159921 0.0140628 0.0111715 0.00938445 0.0107527 0.0132044 0.0131524 0.0135554 0.011867 0.0114467 0.0121194 0.0125635 0.011376 0.00953353 0.00826427 0.0069683 0.00523164 0.00427284 0.00458656 0.00429483 0.0027287 0.00170262 0.00118751 0.000844779 0.000847181 0.000838878 0.000650957 0.000518525 0.00062139 0.000614233 0.000455593 0.000389041 0.000317668 0.000283604 0.000338057 0.000343242 0.000493381 0.000546148 0.000382535 0.000244896 0.000216063 0.000207984 0.000147591 7.44205e-05 0.000108186 0.000133528 9.39069e-05 5.41475e-05 2.67086e-05 2.97587e-06 1.97069e-05
285.5475 0.00025 -0.00627574 -0.0181733 0.0338494 0.0626953 0.0614275 0.0616083 0.063204 0.0631333 0.0585167 0.0584588 0.0587699 0.0503568 0.0467137 0.0390149 0.0413458 0.0454728 0.0490313 0.0480232 0.0460545 0.0541515 0.055579 0.0515665 0.0449806 0.0439828 0.0399153 0.0408691 0.0376327 0.0242893 0.0144526 0.0105411 0.00841113 0.00864757 0.00600101 0.00604793 0.0095375 0.0125292 0.0165082 0.0206248 0.0220948 0.020887 0.0178495 0.0164767 0.015111 0.0122268 0.0118501 0.0143715 0.014912 0.0148827 0.0155238 0.0161416 0.0143382 0.0113558 0.0093368 0.0105669 0.0131744 0.0130951 0.013463 0.0119289 0.0113871 0.0120908 0.0125933 0.0114766 0.00961778 0.00833522 0.00707678 0.00531707 0.00423271 0.00452773 0.00436531 0.0028102 0.0017282 0.00119822 0.000848362 0.000842246 0.000831343 0.000646739 0.000512073 0.000615112 0.000619757 0.000461965 0.000390485 0.000320018 0.000287246 0.000338022 0.000339611 0.000488365 0.000542429 0.00038255 0.000248475 0.000215981 0.000207737 0.000149466 7.35834e-05 0.000104728 0.000131258 9.33052e-05 5.42996e-05 2.72819e-05 3.65315e-06 2.01198e-05
285.55 0.00025 -0.00635139 -0.0180926 0.0340415 0.0630875 0.0623867 0.0618239 0.063611 0.0643949 0.0599096 0.0589739 0.0600541 0.0516236 0.0468582 0.0386884 0.0407707 0.0452611 0.0498218 0.0486687 0.0456954 0.0539303 0.0565699 0.0527901 0.0456528 0.0443906 0.0404982 0.0412453 0.0385313 0.0256856 0.0152459 0.0116671 0.00930069 0.0096442 0.0064321 0.00595858 0.00939235 0.0122838 0.0162322 0.0205027 0.0221164 0.0212124 0.0180879 0.0165175 0.0153648 0.0124077 0.0117673 0.0142328 0.0149439 0.0147613 0.0154024 0.0162678 0.014615 0.0115578 0.00931387 0.0103905 0.0131341 0.0130312 0.0133637 0.0119878 0.0113486 0.0120694 0.0126157 0.0115676 0.0097066 0.00840285 0.00718602 0.00541122 0.00420202 0.00446217 0.00442591 0.00289686 0.00175715 0.00120953 0.000853657 0.000837306 0.000823877 0.000643247 0.000506297 0.00060812 0.000624742 0.000468666 0.000391916 0.000322099 0.000290433 0.000337929 0.000336625 0.000483908 0.000538859 0.000381969 0.000251852 0.000216062 0.000207397 0.00015136 7.29236e-05 0.000101342 0.000128947 9.26906e-05 5.44483e-05 2.78456e-05 4.34298e-06 2.05385e-05
285.5525 0.00025 -0.00640066 -0.0179182 0.0341578 0.0631289 0.0632876 0.0622909 0.0638785 0.0657625 0.0616213 0.0595526 0.0612306 0.0529123 0.0470447 0.0384036 0.0402762 0.0449973 0.0505578 0.0491988 0.045586 0.0538153 0.057424 0.0539772 0.0463975 0.0449222 0.041125 0.0416246 0.0393028 0.0271904 0.0161556 0.0127271 0.010173 0.0106148 0.00695594 0.00593814 0.00923584 0.0120572 0.0159604 0.0203681 0.0220958 0.0214909 0.0183353 0.0165496 0.0156042 0.012612 0.011721 0.0140927 0.0149579 0.0146438 0.0152704 0.0163687 0.0148883 0.0117759 0.00931973 0.0102268 0.0130823 0.0129614 0.0132587 0.0120433 0.0113296 0.0120545 0.012633 0.0116478 0.00979972 0.00846828 0.0072935 0.00551228 0.00418198 0.00439276 0.00447571 0.00298832 0.00178963 0.0012216 0.000860585 0.00083223 0.000816382 0.000640365 0.000501469 0.000600439 0.000629019 0.000475728 0.000393388 0.000324115 0.000293238 0.000337702 0.000334213 0.000479917 0.000535535 0.000380878 0.000254899 0.000216301 0.000206991 0.000153237 7.24112e-05 9.80493e-05 0.000126603 9.20401e-05 5.45665e-05 2.83847e-05 4.99313e-06 2.09147e-05
285.555 0.00025 -0.00642791 -0.0176131 0.0342273 0.0628687 0.0641499 0.0630212 0.0640185 0.0671563 0.0635702 0.0601911 0.0622852 0.0541715 0.047293 0.038129 0.0399023 0.0447304 0.0512204 0.0495828 0.0456764 0.053848 0.0581649 0.0550867 0.0472077 0.0455877 0.0418012 0.0419857 0.0399466 0.0287918 0.0172144 0.0137165 0.0110221 0.0115411 0.00755922 0.00600061 0.00906572 0.011859 0.0156946 0.0202248 0.022039 0.0217145 0.0185922 0.016577 0.0158237 0.0128358 0.011709 0.0139578 0.0149508 0.0145308 0.015131 0.0164437 0.0151559 0.0120076 0.00935407 0.0100758 0.0130193 0.0128873 0.0131494 0.0120924 0.0113293 0.0120468 0.0126472 0.0117156 0.00989578 0.008534 0.00739885 0.00561987 0.0041733 0.00431996 0.00451342 0.00308379 0.00182604 0.00123468 0.000869261 0.000827091 0.000808793 0.000638014 0.000497646 0.000592156 0.000632555 0.000483128 0.000394916 0.000326085 0.000295645 0.000337231 0.000332291 0.000476379 0.000532443 0.000379392 0.000257671 0.00021669 0.000206482 0.000155111 7.204e-05 9.48006e-05 0.000124213 9.13453e-05 5.46442e-05 2.88895e-05 5.66296e-06 2.13074e-05
285.5575 0.00025 -0.00643266 -0.0171978 0.034239 0.0623103 0.0649921 0.0639551 0.0640492 0.0685087 0.0657663 0.0609475 0.063214 0.0553266 0.0476282 0.0378603 0.0396354 0.044496 0.0517747 0.0498315 0.0459211 0.0540493 0.0588252 0.0560905 0.0480519 0.0463848 0.0425499 0.0423112 0.040492 0.0304685 0.0184559 0.0146426 0.0118396 0.0124031 0.00823972 0.00615433 0.00888823 0.0116865 0.0154335 0.0200668 0.0219539 0.0218812 0.0188569 0.0166064 0.0160179 0.0130738 0.0117281 0.0138346 0.0149203 0.0144195 0.0149899 0.0164928 0.0154123 0.0122525 0.00942004 0.00994095 0.0129445 0.0128071 0.0130372 0.0121355 0.0113465 0.0120459 0.0126611 0.0117704 0.0099919 0.00860072 0.0075001 0.00573178 0.00417591 0.00424618 0.00453848 0.0031829 0.00186703 0.00124904 0.000879397 0.000822037 0.000801231 0.000636094 0.000494911 0.000583491 0.000635249 0.000490887 0.000396496 0.000328041 0.000297728 0.000336432 0.000330758 0.000473357 0.000529625 0.00037757 0.000260019 0.000217233 0.000205892 0.000156978 7.18477e-05 9.16554e-05 0.000121816 9.06596e-05 5.47255e-05 2.93845e-05 6.34382e-06 2.16617e-05
285.56 0.00025 -0.00640113 -0.0166847 0.0342212 0.0614905 0.065842 0.0650684 0.0640665 0.069775 0.0681016 0.061855 0.0639932 0.0563512 0.0480419 0.0376174 0.0394754 0.0443497 0.0522057 0.0499552 0.046243 0.0544004 0.0594586 0.0570042 0.0488881 0.0472936 0.0433882 0.0425859 0.0409684 0.0321877 0.0198784 0.0155225 0.0126192 0.0131857 0.00897809 0.00640694 0.00871104 0.0115373 0.0151804 0.0198979 0.0218477 0.0219842 0.0191293 0.0166459 0.0161843 0.0133226 0.0117785 0.0137252 0.0148634 0.0143096 0.01485 0.0165169 0.0156554 0.0125071 0.00951654 0.00982347 0.0128581 0.0127216 0.0129206 0.0121689 0.0113787 0.012051 0.0126745 0.0118118 0.0100885 0.00867028 0.00759842 0.00584776 0.00419102 0.00417257 0.00454963 0.00328415 0.00191262 0.001265 0.000891288 0.000817228 0.000793723 0.000634404 0.00049333 0.000574542 0.000637078 0.000498954 0.000398051 0.000330059 0.00029955 0.00033531 0.00032957 0.000470807 0.000527091 0.000375564 0.000261965 0.000217888 0.00020522 0.00015883 7.18131e-05 8.8593e-05 0.000119404 8.99412e-05 5.47579e-05 2.98452e-05 7.02358e-06 2.20394e-05
285.5625 0.00025 -0.00632318 -0.0160932 0.034079 0.0604657 0.0667535 0.0662746 0.064113 0.0709052 0.0704788 0.0630053 0.0646117 0.0571859 0.0484962 0.0374344 0.0393928 0.0443217 0.0525095 0.0499864 0.0466013 0.0548276 0.060111 0.057866 0.0496829 0.0482721 0.0443447 0.0428066 0.0413989 0.0339378 0.0214744 0.0163795 0.0133586 0.0138832 0.00976401 0.00676371 0.00854439 0.0114071 0.0149374 0.0197145 0.0217236 0.022024 0.0194056 0.0167015 0.0163209 0.0135741 0.0118573 0.0136348 0.0147844 0.0141984 0.0147156 0.0165164 0.0158799 0.0127702 0.00964554 0.00972747 0.0127605 0.0126297 0.0128018 0.0121938 0.0114255 0.0120632 0.0126897 0.0118394 0.0101818 0.00874317 0.00769209 0.00596639 0.00421804 0.00410052 0.0045466 0.00338609 0.00196351 0.00128288 0.000904473 0.000812684 0.000786243 0.000633001 0.000492862 0.000565405 0.000637957 0.000507303 0.000399644 0.000332163 0.000301163 0.000333775 0.000328613 0.000468706 0.000524809 0.000373447 0.000263462 0.000218662 0.000204494 0.00016064 7.19193e-05 8.56089e-05 0.000116972 8.92024e-05 5.47845e-05 3.0296e-05 7.68487e-06 2.23901e-05
285.565 0.00025 -0.00619886 -0.0154251 0.0337747 0.0592509 0.0677657 0.0675185 0.0642221 0.0718987 0.0728006 0.0644279 0.0651014 0.0578134 0.0489649 0.0373747 0.0393766 0.0444232 0.0526742 0.0499582 0.046967 0.0552653 0.060787 0.0587226 0.0504413 0.0492717 0.0454085 0.0429809 0.041796 0.0356996 0.0232156 0.0172427 0.0140632 0.0144865 0.0105762 0.00722111 0.0084055 0.0112948 0.0147008 0.0195144 0.0215822 0.0220011 0.0196797 0.0167745 0.0164288 0.0138239 0.0119611 0.0135619 0.0146839 0.0140853 0.0145886 0.016493 0.0160817 0.0130389 0.0098044 0.00965448 0.0126536 0.0125326 0.0126815 0.0122101 0.0114848 0.0120825 0.012707 0.0118547 0.0102708 0.00882061 0.00778233 0.00608666 0.00425737 0.00403248 0.00452994 0.00348688 0.00201974 0.00130292 0.000919048 0.000808621 0.000778903 0.000631686 0.000493494 0.000556247 0.000637854 0.00051586 0.000401302 0.000334392 0.000302638 0.000331826 0.000327746 0.000467039 0.000522756 0.000371337 0.000264461 0.00021952 0.000203718 0.000162434 7.22094e-05 8.2754e-05 0.0001145 8.84231e-05 5.47783e-05 3.07219e-05 8.3368e-06 2.27398e-05
285.5675 0.00025 -0.00603661 -0.0147328 0.0332283 0.057899 0.0688376 0.0688015 0.0644555 0.0727555 0.0749362 0.0661414 0.0654859 0.0582498 0.0494376 0.0374646 0.0394111 0.0446648 0.0527127 0.0498786 0.0473418 0.055611 0.0614597 0.0596283 0.0511928 0.0502414 0.046569 0.0431502 0.0421761 0.0374666 0.0250611 0.0181456 0.0147299 0.0149935 0.0113961 0.00777437 0.00830631 0.0111919 0.0144683 0.0192989 0.0214247 0.0219204 0.0199507 0.0168699 0.016512 0.0140661 0.0120896 0.0135094 0.0145682 0.0139673 0.0144732 0.0164477 0.0162559 0.0133121 0.00999315 0.00960655 0.0125375 0.0124289 0.0125588 0.0122165 0.0115546 0.0121077 0.0127261 0.0118592 0.0103533 0.00890245 0.00786808 0.0062066 0.00430821 0.00396928 0.00450047 0.0035847 0.00208168 0.0013257 0.000934767 0.000805174 0.000771704 0.00063047 0.000495195 0.000547237 0.000636804 0.000524605 0.000402944 0.000336787 0.000304096 0.000329493 0.000326936 0.000465799 0.000520953 0.000369353 0.000264959 0.000220447 0.000202903 0.000164184 7.26307e-05 7.99921e-05 0.000112036 8.76222e-05 5.4748e-05 3.11232e-05 8.99188e-06 2.30772e-05