285.5025 0.00025 0.00112573 0.00974488 0.00877957 0.00650626 0.0143886 0.0124322 0.0143584 0.0133482 0.00813166 0.00857033 0.00996032 0.00780776 0.0131828 0.0165823 0.0102331 0.0121792 0.0100171 0.0096983 0.0117491 0.00797234 0.00370097 -0.00212224 -0.00398606 -0.00119378 0.00199747 0.00326974 0.00462031 0.00490668 0.00195904 0.000916239 0.00323667 0.00476768 0.00480824 0.0075172 0.00641318 0.00530596 0.00547403 0.00590324 0.00633988 0.00562997 0.00423283 0.00339032 0.00378738 0.00319093 0.00288735 0.00245746 0.00124469 0.00133582 0.00096611 0.000567238 0.00094154 0.00252199 0.00302845 0.00244487 0.00346097 0.00479532 0.0040778 0.00343465 0.00319521 0.00322217 0.00394645 0.00438416 0.00386418 0.00364512 0.00335448 0.00289398 0.00247959 0.00234992 0.00237397 0.00213929 0.0019381 0.00170489 0.00133151 0.00100681 0.000674472 0.000401832 0.000340862 0.000237614 8.69262e-05 -4.04357e-05 -0.000209226 -0.000387356 -0.000380906 -0.000304125 -0.000228571 -0.000231449 -0.000233352 -0.000233942 -0.000263658 -0.000300853 -0.000315773 -0.000277689 -0.000214118 -0.000163478 -0.000174243 -0.000190234 -0.000171161 -9.80451e-05 -2.25377e-05 1.64618e-06
285.505 0.00025 0.00107936 0.00967545 0.0085153 0.0063074 0.0144487 0.012418 0.0139597 0.0131338 0.00825616 0.00801728 0.00978055 0.00724151 0.0124777 0.0165587 0.0101542 0.0113878 0.00978336 0.00925806 0.0113502 0.00771754 0.003665 -0.00230666 -0.00462431 -0.00157731 0.00195976 0.00329645 0.00473612 0.00525304 0.00232326 0.00111578 0.0031375 0.00454323 0.00496756 0.00781877 0.00659228 0.00534383 0.00533465 0.00580731 0.00637066 0.00569568 0.00439614 0.00351855 0.00372624 0.00312567 0.00295009 0.00247568 0.00132265 0.00133529 0.000903195 0.000460413 0.000856076 0.00248656 0.00307702 0.00239184 0.00334956 0.00469783 0.0040471 0.00343607 0.00318149 0.0031641 0.00388024 0.00434842 0.00386801 0.00363863 0.00337253 0.00292388 0.00247829 0.00233429 0.00235324 0.00213916 0.00193671 0.00171226 0.00134629 0.00101413 0.000679241 0.000411183 0.000349794 0.000247591 9.23514e-05 -4.07287e-05 -0.000206573 -0.000384096 -0.000386852 -0.000311788 -0.000229635 -0.000226979 -0.0002328 -0.000233714 -0.000257684 -0.000297018 -0.00031407 -0.000278231 -0.000217537 -0.000166456 -0.000174252 -0.000189307 -0.000171254 -9.87631e-05 -2.31352e-05 1.47641e-06
285.5075 0.00025 0.00103538 0.00964487 0.00828098 0.00614045 0.0144888 0.0124258 0.0135588 0.0129058 0.00841829 0.00756338 0.00946959 0.00689528 0.0117419 0.0163393 0.0101596 0.0105513 0.00954974 0.00895673 0.010809 0.00736449 0.00360497 -0.00239715 -0.00517342 -0.0019737 0.00188824 0.00330233 0.00486014 0.00558931 0.00268303 0.0012999 0.00305656 0.00431511 0.00513462 0.00809092 0.0067651 0.00539062 0.00520184 0.00571564 0.00639882 0.00575079 0.00454904 0.00364664 0.00366542 0.003051 0.00301738 0.00249588 0.00140721 0.00133213 0.000839299 0.000356849 0.000775966 0.00244858 0.00311746 0.00234506 0.0032453 0.00459534 0.00401136 0.00343787 0.00317236 0.00311575 0.00381241 0.00430724 0.00387215 0.00362911 0.00338404 0.00295213 0.00247802 0.00231995 0.0023323 0.00213752 0.00193403 0.00171879 0.00136132 0.00102154 0.000684025 0.000420499 0.000358871 0.000257237 9.79619e-05 -4.0529e-05 -0.000203887 -0.000380229 -0.000392207 -0.000319855 -0.00023111 -0.000222455 -0.000231983 -0.000233657 -0.000251769 -0.000293128 -0.000312314 -0.000278576 -0.00022084 -0.000169573 -0.000174384 -0.000188373 -0.00017132 -9.95094e-05 -2.37458e-05 1.31297e-06
285.51 0.00025 0.000994837 0.00965445 0.00809226 0.00601774 0.0144911 0.0124713 0.0131373 0.0126837 0.00861394 0.00721925 0.00903234 0.00674195 0.0110268 0.0158968 0.0102219 0.00972497 0.00928337 0.0087908 0.0101711 0.00693049 0.00347897 -0.00238677 -0.00561865 -0.00237335 0.00177617 0.00328758 0.00498566 0.00592091 0.00303936 0.00147313 0.00299192 0.00409728 0.00530177 0.00832857 0.00693945 0.00544743 0.00508133 0.00562753 0.0064247 0.00579334 0.00468669 0.00376859 0.00360685 0.00297133 0.00308591 0.00251647 0.00149478 0.00132688 0.000775856 0.000258363 0.00070107 0.00241125 0.00314792 0.00230169 0.0031506 0.0044899 0.00397044 0.00344068 0.00316726 0.00307747 0.00374494 0.00426096 0.00387489 0.00361706 0.00338928 0.00297775 0.00247845 0.00230632 0.00231148 0.00213467 0.00192997 0.00172433 0.00137665 0.00102902 0.000688908 0.000429768 0.000368047 0.000266467 0.000103689 -3.9914e-05 -0.000201121 -0.000375788 -0.000396974 -0.00032822 -0.000233011 -0.00021792 -0.000230918 -0.000233749 -0.000245962 -0.000289198 -0.000310511 -0.000278769 -0.000224011 -0.000172809 -0.000174627 -0.000187416 -0.000171369 -0.000100274 -2.43694e-05 1.14927e-06
285.5125 0.00025 0.000959082 0.00970197 0.00798915 0.00595518 0.0144207 0.0125657 0.0127054 0.0125245 0.00882872 0.00695351 0.00851952 0.00673221 0.0103922 0.0152418 0.0103006 0.00895288 0.00896404 0.00871676 0.00947588 0.00644086 0.00326253 -0.00228716 -0.00594982 -0.00275676 0.00162037 0.00325089 0.00512228 0.00624812 0.00338774 0.00163773 0.00294205 0.00389624 0.00546249 0.00853149 0.00710804 0.00551288 0.00497846 0.00554047 0.0064476 0.00582753 0.00480772 0.0038854 0.00355528 0.00288495 0.00315164 0.00254263 0.00158465 0.00131904 0.000711787 0.000164308 0.000631756 0.00237199 0.00316858 0.00226177 0.00306459 0.00438404 0.00392323 0.00344429 0.00316637 0.00304935 0.00367931 0.00421076 0.00387548 0.00360332 0.00338858 0.00300041 0.00247985 0.0022933 0.00229101 0.00213058 0.00192472 0.00172893 0.001392 0.00103668 0.000693939 0.000438934 0.000377325 0.00027535 0.000109558 -3.88464e-05 -0.000198207 -0.000370924 -0.000401065 -0.000336808 -0.000235365 -0.00021339 -0.000229623 -0.000233973 -0.000240233 -0.000285213 -0.000308676 -0.0002788 -0.000227045 -0.00017615 -0.00017499 -0.000186432 -0.000171391 -0.000101037 -2.50039e-05 9.78451e-07
285.515 0.00025 0.000929461 0.00978307 0.00797509 0.00595088 0.01423 0.0127002 0.0122522 0.0124244 0.00906224 0.00677407 0.00797064 0.00682679 0.00986981 0.0144175 0.0103226 0.008279 0.00859038 0.00868876 0.00876694 0.00592691 0.0029363 -0.00212211 -0.00615105 -0.00310722 0.00141459 0.00318324 0.00526051 0.00655456 0.00372635 0.00180224 0.00290589 0.00371521 0.00560988 0.00869971 0.00726914 0.00559042 0.00489285 0.00545003 0.00646794 0.0058526 0.00490695 0.00399205 0.00350945 0.00279481 0.00321202 0.00257243 0.00167397 0.00131111 0.000648814 7.84391e-05 0.000568663 0.00233275 0.003179 0.00222606 0.0029875 0.00427837 0.00387003 0.00344707 0.00316819 0.00302971 0.00361579 0.00415716 0.00387341 0.00358806 0.00338226 0.00301957 0.00248282 0.00228034 0.00227129 0.00212562 0.00191834 0.00173266 0.0014074 0.00104456 0.000699139 0.00044811 0.00038665 0.000283778 0.000115514 -3.74153e-05 -0.000195076 -0.000365758 -0.000404457 -0.000345551 -0.000238265 -0.000208913 -0.000228053 -0.000234281 -0.000234644 -0.000281204 -0.000306795 -0.000278672 -0.000229921 -0.000179598 -0.000175492 -0.000185452 -0.000171371 -0.000101809 -2.56471e-05 7.94846e-07
285.5175 0.00025 0.000908219 0.00989037 0.00806054 0.00602355 0.0138855 0.0128631 0.0117829 0.0123716 0.00930399 0.00665911 0.00740762 0.00699842 0.00943988 0.013503 0.0102436 0.00771482 0.00816763 0.00865991 0.00807534 0.00541915 0.00249382 -0.00193355 -0.00622027 -0.00341214 0.00115901 0.00307503 0.0054005 0.00684352 0.00405183 0.0019736 0.00288576 0.0035569 0.00572819 0.00883029 0.00742066 0.00567306 0.004824 0.00536039 0.0064882 0.00587084 0.00498112 0.00408502 0.00347247 0.00270608 0.00326405 0.0026063 0.00176196 0.00130112 0.000585637 -8.85792e-07 0.000510748 0.00229305 0.00317833 0.00219344 0.00292035 0.00417647 0.00381094 0.00344785 0.00317263 0.00301891 0.0035566 0.0041016 0.00386893 0.00357161 0.00337094 0.00303401 0.0024865 0.00226721 0.00225227 0.00211963 0.00191063 0.00173519 0.00142269 0.00105271 0.000704576 0.000457223 0.000395907 0.000291805 0.000121581 -3.56422e-05 -0.000191659 -0.000360277 -0.000407116 -0.000354342 -0.00024168 -0.000204526 -0.000226237 -0.000234663 -0.000229174 -0.000277131 -0.000304879 -0.000278423 -0.000232643 -0.000183129 -0.000176121 -0.000184461 -0.000171352 -0.000102606 -2.63097e-05 6.09574e-07
285.52 0.00025 0.000899419 0.0100112 0.00824759 0.00623967 0.0133979 0.0130493 0.0113037 0.0123443 0.0095607 0.00659596 0.00685176 0.0072248 0.00908794 0.012558 0.0100321 0.00726353 0.00771717 0.00859099 0.00742836 0.00494878 0.00194893 -0.00175698 -0.00616169 -0.00365675 0.00085314 0.00292315 0.00553385 0.00711494 0.00436192 0.00215616 0.00287688 0.00341836 0.00581499 0.00892159 0.0075578 0.005767 0.00477692 0.00526378 0.00651008 0.0058833 0.00503002 0.00416383 0.00344279 0.00262185 0.00330462 0.00264567 0.00184466 0.00129129 0.000523478 -7.22363e-05 0.000459754 0.00225428 0.00316578 0.00216375 0.00285967 0.0040763 0.0037473 0.0034479 0.00317982 0.00301632 0.00350309 0.00404435 0.00386117 0.00355453 0.00335569 0.00304442 0.00249105 0.00225368 0.00223392 0.00211287 0.00190191 0.00173668 0.00143758 0.00106113 0.000710253 0.000466409 0.000405136 0.000299347 0.000127653 -3.35526e-05 -0.000187929 -0.000354605 -0.000409032 -0.000363081 -0.000245643 -0.000200301 -0.000224202 -0.000235098 -0.000223879 -0.00027303 -0.000302937 -0.000278028 -0.000235191 -0.00018673 -0.000176873 -0.000183474 -0.000171318 -0.000103395 -2.6988e-05 4.27805e-07
285.5225 0.00025 0.000901326 0.0101277 0.00852859 0.00658454 0.012775 0.013285 0.010841 0.012312 0.00980543 0.00658687 0.00629763 0.00744774 0.00881257 0.011639 0.00968948 0.0069099 0.00725741 0.00845428 0.00683394 0.00452857 0.00133 -0.00164034 -0.00599191 -0.00382881 0.000493448 0.00272746 0.00565268 0.00735995 0.00465409 0.00235616 0.00288565 0.00330302 0.00586412 0.00896746 0.00768162 0.00586787 0.00474314 0.00516038 0.0065368 0.00589385 0.0050557 0.0042258 0.00341972 0.00254298 0.00333206 0.00268656 0.00192089 0.00128359 0.000464356 -0.00013638 0.00041537 0.00221531 0.0031428 0.00213855 0.00280546 0.00398138 0.00367872 0.00344524 0.00318908 0.00302054 0.00345627 0.00398614 0.00384939 0.00353665 0.00333685 0.0030498 0.00249603 0.00223956 0.0022163 0.00210548 0.00189225 0.0017372 0.00145215 0.00106992 0.000716218 0.000475763 0.000414278 0.000306405 0.000133759 -3.11516e-05 -0.000183797 -0.00034876 -0.000410229 -0.000371711 -0.000250129 -0.000196265 -0.00022191 -0.000235557 -0.000218746 -0.0002689 -0.000300955 -0.000277528 -0.000237577 -0.000190376 -0.000177764 -0.000182486 -0.000171251 -0.000104211 -2.76851e-05 2.39904e-07
285.525 0.00025 0.000910039 0.0102352 0.0088777 0.00706475 0.0120375 0.0135311 0.0103879 0.0122289 0.0100067 0.00660627 0.00577335 0.00761518 0.0086089 0.0107589 0.00924283 0.00665191 0.00681102 0.00823851 0.00629153 0.00416213 0.000674983 -0.00161747 -0.00574027 -0.00392248 9.62331e-05 0.0024787 0.00574301 0.0075808 0.00493428 0.00257694 0.00290555 0.00320617 0.00587148 0.00896868 0.007788 0.00597563 0.00472595 0.00505236 0.00656368 0.005895 0.00506037 0.00427101 0.00340122 0.00247298 0.00334451 0.00273128 0.00198821 0.00127717 0.000409437 -0.000192503 0.000377984 0.0021756 0.00311009 0.00211626 0.00275724 0.0038904 0.00360695 0.00343911 0.00319957 0.00303046 0.0034173 0.003928 0.00383353 0.00351776 0.00331554 0.0030505 0.00250131 0.00222522 0.00219929 0.00209759 0.00188197 0.00173666 0.00146618 0.00107901 0.000722446 0.000485291 0.000423241 0.000313046 0.000139873 -2.85321e-05 -0.000179277 -0.000342772 -0.00041072 -0.000380146 -0.00025514 -0.000192461 -0.000219393 -0.000236032 -0.000213813 -0.000264726 -0.000298936 -0.000276919 -0.000239797 -0.000194075 -0.000178801 -0.000181507 -0.000171153 -0.00010503 -2.83822e-05 3.93684e-08
285.5275 0.00025 0.000923845 0.0103111 0.00927701 0.0076149 0.0112452 0.0137446 0.00994075 0.0120793 0.0101495 0.00664641 0.00530185 0.00767078 0.00848558 0.00992637 0.00873153 0.00646995 0.0063998 0.00794259 0.0057937 0.0038321 2.06549e-05 -0.00171195 -0.00543785 -0.00393057 -0.000332568 0.00218163 0.00579377 0.00775289 0.00519951 0.00282468 0.00294063 0.00312653 0.00584038 0.00891923 0.0078749 0.00608601 0.00472333 0.00494056 0.00659695 0.00588801 0.00504526 0.00429899 0.00338517 0.00241232 0.00333904 0.00277255 0.00204725 0.00127227 0.000359025 -0.00024162 0.000347153 0.00213504 0.00306746 0.00209712 0.00271534 0.00380558 0.00353438 0.00342957 0.0032107 0.00304395 0.00338712 0.00387137 0.00381419 0.00349852 0.00329186 0.00304646 0.00250647 0.00221018 0.00218263 0.00208898 0.00187104 0.00173499 0.00147947 0.00108846 0.000729007 0.000495009 0.000431989 0.0003192 0.000145956 -2.56264e-05 -0.000174367 -0.000336673 -0.000410568 -0.000388305 -0.000260614 -0.000188999 -0.000216683 -0.000236499 -0.000209052 -0.000260515 -0.0002969 -0.00027622 -0.000241822 -0.000197769 -0.000179968 -0.000180537 -0.000171041 -0.000105858 -2.90886e-05 -1.60907e-07
285.53 0.00025 0.000938014 0.0103538 0.009694 0.00816598 0.0104316 0.0138304 0.00949477 0.0118479 0.0101994 0.00668668 0.00491898 0.00758851 0.00842147 0.00915747 0.00817186 0.0063508 0.00603995 0.00757558 0.00533477 0.00351053 -0.000599934 -0.00191011 -0.00512359 -0.00385174 -0.000782076 0.00183488 0.00579594 0.00788252 0.00545816 0.00309952 0.00298991 0.00306151 0.00577084 0.00882005 0.0079429 0.0061943 0.00473183 0.00482672 0.00663134 0.00587489 0.00501227 0.0043114 0.00337044 0.00236228 0.00331976 0.00281319 0.00209587 0.00126805 0.000315149 -0.000282819 0.000322467 0.0020938 0.00301637 0.00208489 0.00267828 0.00372674 0.00346145 0.00341574 0.00322173 0.00306015 0.00336539 0.00381746 0.00379133 0.00347825 0.00326621 0.00303786 0.00251159 0.00219512 0.00216621 0.00207978 0.00185978 0.00173232 0.00149197 0.00109824 0.000735894 0.000505008 0.000440557 0.000324934 0.000151927 -2.25253e-05 -0.000169028 -0.000330467 -0.000409749 -0.000396116 -0.000266516 -0.000185893 -0.000213771 -0.000236965 -0.000204514 -0.000256288 -0.000294831 -0.000275431 -0.000243673 -0.000201477 -0.000181272 -0.000179583 -0.000170908 -0.000106688 -2.98145e-05 -3.80347e-07
285.5325 0.00025 0.00095045 0.0103681 0.0101059 0.008683 0.00963841 0.0136991 0.0090194 0.01153 0.0101616 0.00671426 0.00465553 0.00736305 0.00838342 0.00845019 0.00759187 0.00627647 0.0057538 0.00715427 0.00490152 0.003158 -0.0011628 -0.00219047 -0.00483783 -0.00369636 -0.00122961 0.00143565 0.00573546 0.00795732 0.00570879 0.00340298 0.00305095 0.00300367 0.00566833 0.00866915 0.00799341 0.00629706 0.00475366 0.00471374 0.00666021 0.00585552 0.00496297 0.00430632 0.00335187 0.00232543 0.00328704 0.00284805 0.00213373 0.00126514 0.000278896 -0.000315169 0.000303712 0.00205208 0.00295652 0.00207736 0.00264512 0.00365219 0.0033899 0.00339855 0.00323326 0.00307747 0.00335242 0.00376722 0.00376552 0.0034582 0.00323978 0.00302519 0.00251574 0.00217982 0.00214983 0.00206991 0.00184832 0.00172838 0.00150344 0.00110829 0.000743162 0.000515317 0.000448918 0.000330186 0.000157818 -1.92317e-05 -0.000163301 -0.00032411 -0.000408357 -0.000403515 -0.00027279 -0.000183223 -0.000210711 -0.000237375 -0.00020019 -0.000252027 -0.000292711 -0.000274555 -0.000245356 -0.000205182 -0.000182713 -0.000178649 -0.000170732 -0.000107524 -3.0557e-05 -6.03593e-07
285.535 0.00025 0.000958918 0.0103526 0.0104792 0.00914091 0.00892679 0.0132758 0.00852099 0.0111469 0.0100238 0.00674541 0.00450348 0.00703186 0.00832257 0.00781508 0.00701787 0.00622947 0.00554439 0.00669057 0.00448921 0.00275087 -0.00166595 -0.00251402 -0.00461595 -0.00348448 -0.00165462 0.00100658 0.00560825 0.00797394 0.00595456 0.00372938 0.00312264 0.00295157 0.00553751 0.0084696 0.00802651 0.00638593 0.00477954 0.00460657 0.00668201 0.00583621 0.00490389 0.00428631 0.00332896 0.00230034 0.00324332 0.00287669 0.0021603 0.00126283 0.000251716 -0.000339506 0.000290486 0.00201007 0.0028895 0.00207547 0.00261485 0.00358459 0.00332215 0.00337748 0.00324421 0.00309421 0.00334806 0.00372183 0.00373704 0.00343704 0.00321173 0.00300874 0.00251873 0.00216469 0.00213305 0.00205931 0.00183702 0.00172335 0.00151384 0.00111868 0.000750758 0.000525845 0.000457048 0.000335061 0.000163582 -1.57113e-05 -0.000157163 -0.000317613 -0.000406413 -0.000410466 -0.00027941 -0.000181032 -0.000207488 -0.000237709 -0.000196085 -0.000247745 -0.00029057 -0.000273619 -0.000246867 -0.000208853 -0.000184278 -0.000177746 -0.000170557 -0.000108367 -3.12933e-05 -8.41727e-07
285.5375 0.00025 0.000967767 0.010325 0.0108038 0.00954922 0.00831556 0.0125561 0.00803416 0.0107088 0.0097863 0.00678705 0.00447352 0.00665102 0.00819531 0.00724014 0.00648966 0.00620776 0.00541084 0.00620232 0.00409208 0.00226578 -0.00211535 -0.00283844 -0.00446968 -0.0032407 -0.00202657 0.000544616 0.005403 0.00792717 0.00618907 0.00406896 0.00320564 0.00290279 0.00538241 0.00822444 0.00804206 0.00646653 0.00481094 0.00451264 0.0066941 0.00581742 0.00483441 0.00425073 0.0032964 0.00228639 0.00319151 0.00289565 0.00217649 0.00126117 0.000233169 -0.000356302 0.000282624 0.00196657 0.00281562 0.00207816 0.00258817 0.00352251 0.00325831 0.00335153 0.00325423 0.00310952 0.00335112 0.00368346 0.0037068 0.00341504 0.0031834 0.00298952 0.00252043 0.00214972 0.00211603 0.00204788 0.001826 0.00171713 0.00152308 0.00112925 0.000758763 0.000536788 0.000465058 0.000339464 0.000169081 -1.19918e-05 -0.000150692 -0.000310952 -0.000403975 -0.000416857 -0.000286289 -0.000179389 -0.00020414 -0.00023797 -0.000192217 -0.000243446 -0.000288393 -0.00027263 -0.000248208 -0.000212468 -0.000185976 -0.000176873 -0.000170349 -0.000109211 -3.2049e-05 -1.08633e-06
285.54 0.00025 0.00097267 0.0102967 0.0110462 0.00989839 0.0078037 0.011574 0.00756982 0.0102593 0.00944911 0.00683877 0.00456659 0.00628553 0.00797739 0.00671822 0.00602847 0.00619902 0.00534558 0.0057088 0.00371101 0.00169469 -0.00252512 -0.00312493 -0.00439915 -0.00301095 -0.00232124 6.03491e-05 0.00511349 0.00781677 0.00640774 0.00441472 0.00329542 0.00285305 0.00521045 0.00794046 0.00804015 0.0065291 0.0048476 0.00443805 0.00669212 0.00580374 0.00476003 0.00420441 0.00325547 0.0022843 0.00313301 0.00290091 0.00218209 0.00125875 0.000222765 -0.000364751 0.000281262 0.00192342 0.00273638 0.00208506 0.00256408 0.00346541 0.00319964 0.00332233 0.00326343 0.00312277 0.00336046 0.00365202 0.00367561 0.0033929 0.00315431 0.00296788 0.00252024 0.00213529 0.0020985 0.00203579 0.00181553 0.00170974 0.00153104 0.00114017 0.000767304 0.000548132 0.000472834 0.000343417 0.0001744 -8.09877e-06 -0.000143939 -0.000304072 -0.000401095 -0.000422701 -0.000293375 -0.000178276 -0.000200701 -0.000238105 -0.000188601 -0.000239165 -0.000286164 -0.000271585 -0.000249372 -0.000216023 -0.00018779 -0.000176035 -0.000170109 -0.000110052 -3.28062e-05 -1.34521e-06
285.5425 0.00025 0.000979536 0.0102758 0.0111886 0.0101749 0.00741418 0.0103919 0.00710857 0.00982564 0.00901975 0.00689 0.00476801 0.00596567 0.0076602 0.00624087 0.00564597 0.00620025 0.00534285 0.00522233 0.00334004 0.00104257 -0.00290954 -0.00335696 -0.00439741 -0.00283496 -0.00251627 -0.000426459 0.00473388 0.00764496 0.00660359 0.00474662 0.00338743 0.00280304 0.00502357 0.0076225 0.00802124 0.00657603 0.00488534 0.00439 0.00667357 0.00579635 0.0046817 0.00414407 0.00320338 0.00229257 0.0030705 0.00289006 0.00217901 0.00125549 0.000221712 -0.000363458 0.000284788 0.00187777 0.00265186 0.00209541 0.00254277 0.00341434 0.00314795 0.00328959 0.00327192 0.00313381 0.00337473 0.00362822 0.00364345 0.00336967 0.00312478 0.00294481 0.00251795 0.00212108 0.00208035 0.00202277 0.0018055 0.00170114 0.00153747 0.00115112 0.000776289 0.000559865 0.00048046 0.000347021 0.0001795 -3.96849e-06 -0.000136892 -0.000296984 -0.000397854 -0.000427924 -0.000300643 -0.000177738 -0.000197211 -0.000238131 -0.000185226 -0.000234881 -0.000283898 -0.000270505 -0.000250372 -0.000219507 -0.000189711 -0.000175246 -0.000169856 -0.000110897 -3.35684e-05 -1.60409e-06
285.545 0.00025 0.000988299 0.0102574 0.0112405 0.0103751 0.00714421 0.00908383 0.00660728 0.00943219 0.00849115 0.00691117 0.00506754 0.0057166 0.00725137 0.00579096 0.00534895 0.0062087 0.00539406 0.00476179 0.0029682 0.000332359 -0.00328012 -0.00353845 -0.00444974 -0.00274127 -0.0026171 -0.000884797 0.00425506 0.00741623 0.00676997 0.00505097 0.00348015 0.00274746 0.00482594 0.00728416 0.00798588 0.00661007 0.00492446 0.00436809 0.00663753 0.00579682 0.00460625 0.00407116 0.00314006 0.00230742 0.00300622 0.00286286 0.0021681 0.00125003 0.000227601 -0.000353914 0.000293809 0.00183028 0.00256406 0.00210901 0.00252514 0.00336612 0.00310184 0.00325336 0.00327781 0.00314195 0.0033918 0.00361353 0.00361297 0.00334616 0.0030941 0.00292072 0.00251339 0.00210756 0.00206129 0.00200863 0.00179614 0.00169156 0.00154252 0.00116206 0.000785684 0.000571986 0.000487964 0.000350257 0.00018425 3.11395e-07 -0.000129646 -0.000289647 -0.000394237 -0.000432502 -0.000308014 -0.000177795 -0.000193714 -0.000238006 -0.000182119 -0.000230591 -0.000281581 -0.000269389 -0.00025121 -0.00022291 -0.00019175 -0.000174525 -0.000169573 -0.000111743 -3.43385e-05 -1.86786e-06
285.5475 0.00025 0.00100175 0.0102389 0.0112048 0.0105134 0.00696873 0.00774625 0.00603417 0.00909858 0.00787559 0.00686303 0.00545144 0.00554519 0.00676715 0.00536462 0.00512583 0.00619926 0.00549121 0.00434963 0.00258316 -0.000405266 -0.00365416 -0.00368356 -0.00454775 -0.00273693 -0.00264213 -0.0012999 0.00367875 0.0071308 0.00690669 0.00531345 0.00356908 0.00268546 0.00462406 0.00693079 0.00793303 0.0066325 0.00496202 0.00437829 0.00658506 0.005802 0.00453756 0.00398656 0.00306411 0.00232702 0.00294311 0.00281801 0.00214838 0.0012419 0.000242066 -0.000333997 0.000308381 0.00178152 0.00247585 0.0021253 0.00251177 0.00332008 0.00306237 0.00321595 0.0032812 0.00314719 0.00341004 0.00360734 0.00358458 0.00332214 0.00306293 0.0028963 0.0025061 0.00209454 0.00204148 0.00199356 0.00178729 0.00168121 0.00154604 0.00117303 0.000795412 0.000584488 0.000495341 0.000353143 0.000188674 4.75817e-06 -0.000122198 -0.000282054 -0.000390319 -0.000436418 -0.000315447 -0.000178419 -0.000190246 -0.000237742 -0.000179267 -0.000226327 -0.000279231 -0.000268245 -0.000251887 -0.000226213 -0.000193892 -0.000173854 -0.000169276 -0.000112587 -3.5112e-05 -2.15515e-06
285.55 0.00025 0.00101927 0.0102186 0.0111177 0.0105846 0.00690754 0.00643589 0.00537634 0.00882487 0.0071928 0.00671955 0.00588998 0.00543738 0.00622527 0.00493185 0.00496332 0.00616664 0.00561644 0.0039953 0.00216622 -0.00114732 -0.00404087 -0.0038195 -0.00468768 -0.00281048 -0.00261938 -0.00164652 0.00300871 0.00679062 0.00701345 0.00552789 0.00365028 0.00260889 0.00442417 0.0065731 0.0078592 0.00664352 0.00499512 0.00441918 0.00652614 0.00581443 0.00447982 0.00389144 0.00297942 0.00234944 0.00288173 0.00275485 0.00212205 0.0012305 0.000262696 -0.000304359 0.000328079 0.00172937 0.00238663 0.00214319 0.00250241 0.00327818 0.0030285 0.00317637 0.00328149 0.00314954 0.00342841 0.00360862 0.00355936 0.00329779 0.00303098 0.0028725 0.0024963 0.00208221 0.00202053 0.00197739 0.00177897 0.00167019 0.00154789 0.00118384 0.000805607 0.00059743 0.000502606 0.000355757 0.000192747 9.32722e-06 -0.00011463 -0.000274202 -0.000386113 -0.000439607 -0.000322884 -0.00017962 -0.00018688 -0.000237291 -0.000176654 -0.000222078 -0.00027684 -0.000267076 -0.000252427 -0.000229399 -0.000196121 -0.000173239 -0.000168967 -0.00011344 -3.58884e-05 -2.42965e-06
285.5525 0.00025 0.00104186 0.0101819 0.0109858 0.0106054 0.0069752 0.00523732 0.00467119 0.00860574 0.00648422 0.00648013 0.00633344 0.00537843 0.00566768 0.00448638 0.00483113 0.00609757 0.00574755 0.0037129 0.00172171 -0.00185843 -0.00443734 -0.00397513 -0.00486437 -0.00293192 -0.00258414 -0.00190972 0.00227016 0.00639191 0.00708734 0.00569526 0.0037259 0.00251474 0.00422228 0.00620741 0.00776552 0.00664726 0.00503198 0.00448977 0.00645826 0.00582744 0.00443763 0.0037878 0.00288607 0.00237163 0.00282481 0.00267444 0.00208839 0.00121537 0.000288156 -0.000265971 0.000352923 0.00167456 0.00229688 0.00216119 0.0024963 0.00323975 0.00300229 0.00313697 0.0032788 0.00314934 0.00344586 0.00361777 0.00353869 0.00327451 0.00299874 0.00284919 0.00248357 0.0020706 0.00199857 0.00195998 0.001771 0.00165867 0.00154813 0.00119432 0.000816189 0.000610794 0.000509832 0.000358146 0.000196441 1.40498e-05 -0.000106928 -0.000266064 -0.000381634 -0.000442097 -0.000330308 -0.000181344 -0.000183638 -0.000236663 -0.000174304 -0.000217861 -0.0002744 -0.000265864 -0.000252833 -0.000232463 -0.000198425 -0.000172694 -0.00016863 -0.000114288 -3.66723e-05 -2.71017e-06
285.555 0.00025 0.00106588 0.0101226 0.0108356 0.010573 0.00719036 0.00417946 0.00397642 0.0084423 0.00580699 0.00614403 0.00674659 0.00535311 0.0051192 0.00401163 0.0047234 0.00598178 0.00586171 0.00350714 0.00125984 -0.00252075 -0.00484881 -0.00417278 -0.00507977 -0.00306296 -0.00256532 -0.0020715 0.00150512 0.00591686 0.00712739 0.00581841 0.00378735 0.00240328 0.00402215 0.00583904 0.00764724 0.00664235 0.00506561 0.00458545 0.00638662 0.00584027 0.00441196 0.0036765 0.00278623 0.00239067 0.00277033 0.00258005 0.00204793 0.00119736 0.000319236 -0.000218813 0.000383345 0.0016171 0.00220824 0.00217919 0.00249279 0.0032055 0.00298337 0.00309709 0.00327222 0.00314619 0.00346046 0.00363217 0.00352294 0.00325116 0.00296615 0.00282663 0.00246835 0.00205967 0.00197572 0.00194141 0.00176341 0.001647 0.00154666 0.00120438 0.000827194 0.000624556 0.000516953 0.000360361 0.000199716 1.88893e-05 -9.91462e-05 -0.000257676 -0.000376947 -0.000443887 -0.000337672 -0.000183599 -0.000180602 -0.000235839 -0.000172188 -0.000213678 -0.000271907 -0.000264644 -0.000253109 -0.000235417 -0.000200801 -0.00017222 -0.000168287 -0.00011513 -3.74475e-05 -2.97982e-06
285.5575 0.00025 0.00108856 0.0100501 0.0106753 0.0105057 0.0075556 0.00329405 0.00331489 0.00832381 0.00521416 0.00573593 0.00709231 0.00534839 0.00459416 0.00351823 0.00463152 0.00582579 0.00594598 0.00338813 0.000792381 -0.00312324 -0.0052635 -0.00442552 -0.00534363 -0.00317343 -0.00257666 -0.00214678 0.000744928 0.00535223 0.00712683 0.00591123 0.00383688 0.00227414 0.00382356 0.00547151 0.00750563 0.00663259 0.00510335 0.0047023 0.00631542 0.0058521 0.00440496 0.00356273 0.00268211 0.00240284 0.00271789 0.0024713 0.00200104 0.0011759 0.000354878 -0.000164014 0.000418833 0.00155696 0.00212144 0.0021953 0.00249429 0.00317298 0.00296769 0.00305929 0.00326216 0.00314041 0.00347261 0.0036517 0.00351275 0.0032284 0.00293288 0.00280458 0.00245071 0.00204884 0.00195183 0.00192162 0.00175611 0.00163515 0.00154354 0.00121391 0.000838608 0.000638684 0.00052405 0.000362484 0.000202556 2.38476e-05 -9.1338e-05 -0.000249058 -0.000372036 -0.000444978 -0.000344903 -0.000186339 -0.000177807 -0.000234829 -0.000170317 -0.000209543 -0.000269375 -0.000263404 -0.000253271 -0.000238225 -0.000203228 -0.000171821 -0.000167921 -0.000115962 -3.82305e-05 -3.26603e-06
285.56 0.00025 0.00110934 0.00995962 0.0104996 0.0104173 0.00800713 0.00261261 0.00273988 0.00823198 0.00472335 0.00529495 0.00736187 0.00536484 0.00411726 0.00303118 0.00453062 0.00562185 0.00596747 0.00334787 0.000331417 -0.00366186 -0.00566717 -0.00474212 -0.0056597 -0.00325972 -0.00262233 -0.00214718 3.61345e-05 0.00469739 0.00708421 0.00598432 0.00387307 0.00212892 0.00362569 0.00510196 0.00733763 0.00662168 0.00514669 0.0048372 0.00624979 0.00586006 0.00441908 0.00345157 0.00257561 0.00240677 0.00266469 0.00235393 0.00194881 0.00115145 0.000393824 -0.000102778 0.000459752 0.00149424 0.00203767 0.00221111 0.00249826 0.00314451 0.00295703 0.00302357 0.00324783 0.00313234 0.00348131 0.00367369 0.00350917 0.00320707 0.00290001 0.00278346 0.00243103 0.00203842 0.0019269 0.00190048 0.00174906 0.0016234 0.00153875 0.00122267 0.000850402 0.000653199 0.000531128 0.000364539 0.000204976 2.88734e-05 -8.34686e-05 -0.000240196 -0.00036685 -0.000445372 -0.000351966 -0.000189504 -0.0001753 -0.000233604 -0.000168696 -0.000205489 -0.000266793 -0.000262153 -0.000253318 -0.000240895 -0.000205704 -0.0001715 -0.000167547 -0.000116802 -3.90212e-05 -3.52402e-06
285.5625 0.00025 0.00112846 0.0098576 0.0102981 0.0103057 0.0085023 0.00217156 0.00227932 0.00816488 0.00434759 0.00487174 0.00753997 0.00539636 0.00369907 0.00257668 0.00441606 0.00535939 0.00591678 0.00336836 -0.000108729 -0.00413697 -0.00605068 -0.00513597 -0.0060233 -0.00332326 -0.00269799 -0.00209056 -0.000591578 0.00395831 0.00698473 0.00603915 0.00389397 0.00197397 0.00342454 0.00473082 0.00714067 0.00660432 0.00520382 0.00498245 0.00618632 0.00586184 0.00445187 0.00334735 0.00247123 0.00240129 0.00261092 0.00223041 0.0018898 0.00112483 0.000435267 -3.57256e-05 0.000505236 0.00142945 0.00195571 0.00222423 0.00250644 0.00311889 0.00294951 0.00299106 0.00322897 0.00312218 0.00348732 0.00369671 0.0035128 0.00318738 0.00286763 0.00276266 0.00240986 0.00202789 0.00190115 0.00187804 0.00174213 0.00161185 0.00153236 0.00123051 0.000862546 0.000667977 0.000538117 0.000366548 0.000206966 3.3918e-05 -7.56193e-05 -0.0002311 -0.000361456 -0.000445098 -0.000358811 -0.000193105 -0.00017312 -0.000232175 -0.000167287 -0.000201497 -0.000264157 -0.000260882 -0.000253266 -0.000243399 -0.000208219 -0.000171269 -0.000167158 -0.000117613 -3.97912e-05 -3.80013e-06