285.5025 0.00025 0.00617031 0.0344776 0.0840374 0.131426 0.151149 0.16111 0.166546 0.16735 0.164047 0.164826 0.167546 0.167878 0.168772 0.161118 0.157416 0.150751 0.145836 0.143638 0.146219 0.146609 0.151085 0.152223 0.156012 0.154816 0.151205 0.148841 0.143736 0.141686 0.139586 0.134887 0.132488 0.130215 0.128407 0.122605 0.119602 0.117221 0.117359 0.120123 0.119358 0.118406 0.115442 0.113777 0.110526 0.105066 0.101055 0.0944725 0.089464 0.0856383 0.0819476 0.0796522 0.0761478 0.0722528 0.069785 0.0675171 0.0663693 0.0643319 0.0616716 0.0598376 0.059098 0.0578456 0.0566294 0.0558368 0.0546085 0.0530634 0.04998 0.0478272 0.0450091 0.0425567 0.0401677 0.0380496 0.036465 0.0348005 0.03367 0.0329061 0.0320483 0.0312335 0.0300056 0.0288142 0.0272548 0.0260503 0.024668 0.0232093 0.0216349 0.0199785 0.0184688 0.0171368 0.0160919 0.0151398 0.0143236 0.0137089 0.0131737 0.0125237 0.0115841 0.0103692 0.00902695 0.00768772 0.00621316 0.00434675 0.00238402 0.000469851
285.505 0.00025 0.0061869 0.0344062 0.0838368 0.131398 0.151119 0.161584 0.16659 0.167462 0.163447 0.164674 0.16779 0.167632 0.168656 0.161061 0.157349 0.150909 0.145871 0.144 0.146592 0.147096 0.151258 0.152367 0.156211 0.154754 0.151352 0.148963 0.144217 0.141919 0.139618 0.135087 0.132494 0.13024 0.128068 0.122431 0.119337 0.116727 0.116958 0.11956 0.118821 0.117933 0.114844 0.113215 0.110049 0.104592 0.100764 0.0941207 0.0892134 0.0854137 0.0817751 0.0795857 0.0760592 0.0722216 0.0698006 0.0675163 0.0664776 0.0644422 0.0617916 0.0599085 0.0591074 0.0578685 0.0566499 0.0558622 0.0545937 0.0531195 0.0500177 0.0478354 0.0450267 0.0425024 0.0401337 0.0380108 0.0364293 0.0347386 0.0335973 0.0328318 0.0319946 0.0311967 0.0299678 0.0287778 0.0272144 0.026004 0.0246165 0.0231578 0.0216109 0.019959 0.0184535 0.0171371 0.0160913 0.0151322 0.0143052 0.0136847 0.0131522 0.0125108 0.0115844 0.0103772 0.00902942 0.00768277 0.00620919 0.00434356 0.00238083 0.00046904
285.5075 0.00025 0.00620553 0.0343043 0.0835828 0.13138 0.151024 0.162091 0.166704 0.167495 0.162983 0.164415 0.16808 0.167419 0.168395 0.161118 0.157295 0.151087 0.145999 0.144359 0.146967 0.147626 0.15145 0.152555 0.156357 0.154665 0.1515 0.149025 0.144732 0.142156 0.139656 0.135341 0.132537 0.130259 0.12773 0.122281 0.119072 0.116221 0.116579 0.118987 0.118259 0.117446 0.11427 0.112644 0.109557 0.104142 0.100479 0.0937782 0.0889702 0.0851766 0.0816053 0.0795097 0.0759619 0.0721872 0.0698042 0.0675193 0.0665857 0.0645515 0.0619201 0.059987 0.0591169 0.0578964 0.0566716 0.0558904 0.0545773 0.0531694 0.0500545 0.0478401 0.0450463 0.0424503 0.040097 0.0379705 0.036394 0.0346798 0.0335248 0.0327572 0.0319386 0.0311597 0.0299311 0.0287415 0.0271748 0.0259581 0.0245657 0.023106 0.0215858 0.01994 0.0184377 0.0171368 0.0160907 0.0151249 0.0142872 0.0136606 0.0131307 0.0124976 0.0115842 0.0103854 0.0090323 0.00767809 0.00620535 0.00434044 0.00237769 0.000468232
285.51 0.00025 0.00622593 0.0341743 0.0832916 0.131356 0.150876 0.162591 0.166867 0.167435 0.162674 0.164072 0.168364 0.167303 0.167998 0.161276 0.157265 0.151277 0.146224 0.144715 0.147349 0.148189 0.151666 0.152804 0.15645 0.154567 0.151641 0.149023 0.145251 0.142404 0.139705 0.135633 0.132617 0.130272 0.127403 0.122145 0.118812 0.115716 0.116233 0.118415 0.117681 0.116943 0.113719 0.112066 0.109046 0.103708 0.1002 0.0934412 0.0887309 0.0849273 0.0814374 0.0794227 0.0758573 0.0721495 0.0697937 0.0675256 0.0666946 0.0646587 0.0620568 0.0600739 0.0591283 0.0579298 0.0566961 0.0559209 0.05456 0.0532121 0.0500906 0.0478419 0.0450662 0.0424004 0.0400578 0.0379286 0.0363586 0.0346244 0.0334532 0.0326829 0.0318807 0.0311219 0.0298952 0.0287051 0.0271354 0.0259126 0.0245155 0.0230539 0.0215596 0.0199212 0.0184214 0.0171357 0.0160899 0.0151179 0.0142697 0.0136366 0.013109 0.0124839 0.0115834 0.0103935 0.00903557 0.00767369 0.0062016 0.00433737 0.00237457 0.000467418
285.5125 0.00025 0.006244 0.0340202 0.0829664 0.131296 0.150683 0.163037 0.167082 0.167287 0.162511 0.163703 0.168581 0.1673 0.167496 0.161496 0.157266 0.151476 0.146554 0.145089 0.147741 0.148772 0.151894 0.153108 0.156494 0.154467 0.151765 0.14897 0.145752 0.142677 0.139769 0.135961 0.132739 0.130271 0.127092 0.122015 0.118553 0.115215 0.115906 0.117841 0.117092 0.116421 0.113185 0.111486 0.108523 0.103291 0.0999325 0.0931117 0.0884945 0.0846707 0.0812731 0.0793253 0.0757468 0.0721097 0.0697685 0.0675347 0.0668017 0.0647616 0.0622017 0.0601692 0.059141 0.0579688 0.0567232 0.0559517 0.054543 0.0532485 0.050125 0.0478393 0.0450863 0.0423557 0.040017 0.0378852 0.0363232 0.0345725 0.0333823 0.0326086 0.0318211 0.0310832 0.0298602 0.0286688 0.0270964 0.0258672 0.0244658 0.0230016 0.0215322 0.0199026 0.018405 0.017134 0.0160892 0.0151114 0.0142527 0.0136128 0.0130873 0.0124699 0.0115821 0.0104016 0.00903923 0.00766956 0.00619796 0.00433437 0.00237148 0.00046659
285.515 0.00025 0.00625918 0.0338503 0.0826303 0.131166 0.150463 0.163419 0.167344 0.167069 0.162474 0.163347 0.168683 0.167394 0.166953 0.16173 0.157295 0.151672 0.146975 0.145492 0.148138 0.149359 0.152145 0.153457 0.156503 0.154375 0.151869 0.148876 0.146214 0.14298 0.13986 0.136315 0.132899 0.130257 0.126803 0.121886 0.118296 0.114721 0.115594 0.117268 0.116492 0.115879 0.112661 0.110908 0.10799 0.102886 0.0996758 0.0927901 0.0882621 0.0844101 0.0811111 0.0792174 0.075631 0.072066 0.0697258 0.067544 0.0669078 0.0648617 0.0623528 0.0602707 0.0591549 0.0580135 0.0567544 0.0559823 0.0545285 0.0532789 0.0501585 0.0478344 0.0451054 0.0423153 0.0399743 0.0378401 0.0362868 0.0345236 0.0333124 0.0325346 0.03176 0.0310432 0.0298259 0.0286327 0.027058 0.0258222 0.0244167 0.0229491 0.0215035 0.0198842 0.0183885 0.0171316 0.0160884 0.015105 0.0142361 0.0135891 0.0130656 0.0124556 0.0115802 0.0104095 0.00904324 0.00766576 0.00619444 0.00433147 0.00236845 0.000465775
285.5175 0.00025 0.00626912 0.0336736 0.0822786 0.130951 0.150209 0.163721 0.167639 0.166829 0.16252 0.163057 0.168679 0.167552 0.166436 0.161931 0.157366 0.151868 0.147491 0.14594 0.148542 0.149948 0.152427 0.153832 0.156487 0.15429 0.151935 0.14875 0.146611 0.143313 0.139984 0.136687 0.133098 0.130235 0.126539 0.121754 0.118043 0.114247 0.115291 0.116697 0.115888 0.115321 0.112142 0.110333 0.107454 0.102492 0.0994306 0.0924728 0.0880312 0.084144 0.0809543 0.0791037 0.0755131 0.0720183 0.0696652 0.0675518 0.0670131 0.0649582 0.0625088 0.0603778 0.0591699 0.0580641 0.0567914 0.0560141 0.0545164 0.0533014 0.0501905 0.0478271 0.0451213 0.0422803 0.0399304 0.0377934 0.0362494 0.034478 0.0332441 0.0324608 0.0316977 0.0310016 0.029792 0.0285969 0.0270202 0.0257776 0.0243681 0.0228967 0.0214737 0.0198657 0.0183717 0.0171283 0.0160873 0.0150989 0.0142201 0.0135655 0.0130437 0.012441 0.0115777 0.0104173 0.00904757 0.00766221 0.00619103 0.00432863 0.00236546 0.000464948
285.52 0.00025 0.00627585 0.0334953 0.0819203 0.130645 0.149913 0.163916 0.167959 0.166627 0.16262 0.162829 0.16859 0.167703 0.165988 0.162057 0.157478 0.152074 0.14809 0.146442 0.148951 0.150523 0.152749 0.154222 0.156457 0.15422 0.151956 0.148605 0.146935 0.143678 0.140149 0.137065 0.133331 0.130209 0.126305 0.121614 0.117796 0.113797 0.114993 0.116129 0.115284 0.114755 0.111625 0.109765 0.106918 0.102102 0.099196 0.0921651 0.0878019 0.0838767 0.0807993 0.0789785 0.0753901 0.0719656 0.0695874 0.0675581 0.0671192 0.0650533 0.0626699 0.0604912 0.0591871 0.0581189 0.0568335 0.0560463 0.0545084 0.0533166 0.0502204 0.0478185 0.0451358 0.0422515 0.0398865 0.0377457 0.0362111 0.0344357 0.0331777 0.032387 0.0316343 0.0309583 0.0297584 0.0285613 0.0269828 0.0257332 0.02432 0.0228443 0.0214426 0.0198471 0.018355 0.0171243 0.016086 0.0150929 0.0142045 0.0135422 0.0130219 0.0124261 0.0115747 0.0104249 0.00905224 0.00765897 0.00618774 0.00432589 0.00236251 0.000464132
285.5225 0.00025 0.00627892 0.0333218 0.0815827 0.130249 0.149573 0.164011 0.168283 0.16651 0.162753 0.162693 0.168459 0.167811 0.165639 0.162099 0.157624 0.152282 0.148759 0.146993 0.149368 0.151083 0.153116 0.154617 0.156423 0.154164 0.151927 0.14845 0.147181 0.144069 0.140367 0.137442 0.133587 0.130181 0.126098 0.121466 0.117554 0.113372 0.11469 0.11557 0.114685 0.114183 0.1111 0.109205 0.106388 0.101708 0.0989645 0.0918685 0.0875753 0.0836113 0.0806482 0.0788467 0.075264 0.071907 0.0694942 0.0675601 0.0672232 0.0651447 0.0628326 0.0606096 0.0592081 0.0581796 0.0568819 0.0560772 0.0545047 0.0533254 0.0502485 0.0478097 0.0451464 0.0422275 0.0398416 0.0376959 0.0361712 0.034396 0.033113 0.0323138 0.0315704 0.0309131 0.0297247 0.028526 0.0269458 0.0256891 0.0242725 0.0227922 0.0214104 0.0198283 0.0183386 0.0171195 0.0160844 0.015087 0.0141896 0.0135191 0.0130001 0.0124109 0.0115711 0.0104322 0.0090572 0.00765602 0.00618458 0.00432319 0.00235961 0.000463316
285.525 0.00025 0.00627878 0.0331604 0.0812816 0.129772 0.149179 0.163975 0.168615 0.166498 0.162908 0.162645 0.168305 0.167845 0.16538 0.162057 0.157782 0.152495 0.149491 0.147593 0.149804 0.151626 0.153517 0.15501 0.156392 0.154123 0.151846 0.148298 0.147352 0.144478 0.140639 0.13781 0.133858 0.130154 0.125922 0.12131 0.117323 0.112981 0.114384 0.115023 0.11409 0.113609 0.110569 0.108655 0.105867 0.101307 0.0987368 0.0915813 0.0873481 0.0833469 0.0804985 0.078707 0.0751361 0.0718447 0.0693894 0.0675575 0.0673251 0.0652337 0.0629975 0.0607334 0.0592334 0.0582437 0.0569362 0.0561071 0.0545047 0.0533279 0.0502745 0.0478016 0.0451549 0.0422096 0.0397973 0.0376455 0.0361304 0.0343587 0.0330507 0.0322409 0.0315057 0.0308659 0.0296909 0.0284911 0.0269095 0.0256454 0.0242257 0.0227405 0.0213771 0.0198093 0.0183224 0.0171141 0.0160824 0.0150811 0.0141751 0.0134962 0.0129783 0.0123956 0.0115669 0.0104393 0.00906244 0.00765338 0.00618157 0.00432061 0.00235676 0.000462504
285.5275 0.00025 0.00627733 0.033023 0.0810173 0.129221 0.148711 0.163817 0.168939 0.166611 0.163093 0.162671 0.168139 0.167819 0.165183 0.161959 0.157934 0.152709 0.150276 0.14824 0.15026 0.152158 0.153938 0.155388 0.156373 0.154094 0.15172 0.148149 0.147447 0.144888 0.140965 0.138166 0.134142 0.130138 0.125777 0.121141 0.117102 0.112621 0.114064 0.114485 0.113499 0.113032 0.11003 0.108116 0.105359 0.100899 0.0985073 0.0913063 0.0871188 0.0830835 0.0803511 0.078559 0.0750065 0.0717749 0.0692738 0.0675475 0.0674235 0.0653202 0.063163 0.0608637 0.0592636 0.0583119 0.0569981 0.0561363 0.0545093 0.0533259 0.0502984 0.0477934 0.045159 0.0421969 0.039754 0.0375939 0.0360881 0.0343231 0.0329908 0.0321686 0.0314409 0.030817 0.0296565 0.0284566 0.0268739 0.0256021 0.0241794 0.0226891 0.0213427 0.0197899 0.0183067 0.0171079 0.01608 0.0150752 0.0141611 0.0134736 0.0129566 0.01238 0.0115622 0.0104461 0.00906795 0.00765105 0.00617873 0.00431809 0.00235396 0.000461694
285.53 0.00025 0.00627674 0.032905 0.0808043 0.128612 0.14816 0.163537 0.16925 0.166842 0.163328 0.162756 0.167971 0.167747 0.165008 0.161823 0.158052 0.152918 0.151113 0.14892 0.15074 0.152692 0.154365 0.155746 0.156359 0.154072 0.151557 0.148015 0.14748 0.145297 0.141342 0.138514 0.134428 0.130134 0.125665 0.120961 0.116896 0.112291 0.113728 0.113961 0.112921 0.112456 0.109483 0.107586 0.104865 0.100486 0.0982767 0.0910468 0.0868877 0.082823 0.0802076 0.0784052 0.0748751 0.071698 0.0691496 0.0675297 0.067517 0.0654051 0.0633289 0.0609981 0.0592975 0.0583814 0.0570669 0.0561654 0.0545173 0.0533188 0.0503188 0.0477858 0.0451598 0.0421889 0.0397121 0.0375409 0.0360444 0.0342894 0.0329336 0.0320972 0.0313757 0.0307664 0.0296213 0.0284224 0.0268389 0.0255592 0.0241337 0.0226382 0.0213073 0.01977 0.0182912 0.0171012 0.0160772 0.0150692 0.0141476 0.0134512 0.012935 0.0123643 0.0115568 0.0104524 0.00907366 0.00764905 0.00617601 0.00431562 0.00235118 0.000460883
285.5325 0.00025 0.00628069 0.03281 0.080636 0.127962 0.147538 0.163125 0.16956 0.167173 0.163644 0.162903 0.1678 0.167661 0.164828 0.161668 0.158142 0.153121 0.151997 0.149621 0.151237 0.153235 0.154785 0.156082 0.156351 0.154057 0.151369 0.147893 0.147452 0.145688 0.141758 0.138851 0.134708 0.130151 0.125586 0.120765 0.116706 0.11199 0.113374 0.113449 0.11236 0.111878 0.108932 0.107066 0.104393 0.10007 0.0980337 0.0907995 0.0866559 0.0825623 0.0800641 0.0782425 0.0747413 0.0716129 0.0690194 0.0675039 0.0676042 0.0654885 0.0634928 0.0611346 0.0593354 0.0584545 0.0571424 0.0561936 0.0545308 0.053309 0.0503356 0.047779 0.0451581 0.042186 0.0396726 0.0374874 0.0359995 0.0342569 0.032879 0.0320266 0.0313106 0.0307141 0.0295851 0.0283884 0.0268043 0.0255168 0.0240884 0.0225879 0.0212711 0.0197496 0.0182761 0.017094 0.0160739 0.0150629 0.0141345 0.0134292 0.0129135 0.0123486 0.011551 0.0104584 0.00907956 0.00764735 0.00617344 0.00431321 0.00234845 0.000460089
285.535 0.00025 0.00628618 0.0327401 0.0805087 0.127297 0.146871 0.162631 0.169861 0.16756 0.164044 0.163106 0.167627 0.167572 0.164639 0.161503 0.158213 0.153304 0.152909 0.15034 0.151742 0.15379 0.155193 0.156382 0.156336 0.154037 0.151173 0.147783 0.147377 0.146057 0.142205 0.139181 0.134975 0.130182 0.125539 0.120556 0.116534 0.111714 0.113002 0.112947 0.111817 0.111293 0.108377 0.106554 0.103942 0.0996533 0.0977752 0.0905653 0.0864276 0.082309 0.0799246 0.0780722 0.0746056 0.0715194 0.0688855 0.067471 0.0676846 0.065571 0.0636556 0.0612766 0.0593789 0.05853 0.0572249 0.0562223 0.0545483 0.0532956 0.05035 0.0477733 0.0451536 0.0421867 0.0396358 0.0374333 0.0359536 0.0342255 0.0328266 0.031957 0.0312453 0.0306605 0.0295477 0.0283543 0.0267703 0.0254747 0.0240438 0.0225381 0.0212341 0.0197286 0.0182615 0.0170863 0.01607 0.0150565 0.014122 0.0134076 0.012892 0.0123327 0.0115446 0.0104639 0.00908564 0.00764598 0.00617106 0.00431095 0.0023458 0.0004593
285.5375 0.00025 0.00629245 0.0326975 0.0804163 0.126649 0.146192 0.162062 0.170138 0.167983 0.164528 0.163375 0.167449 0.167488 0.164448 0.161322 0.158294 0.153462 0.153818 0.151077 0.152243 0.154354 0.155596 0.156652 0.156307 0.154018 0.150983 0.147675 0.147271 0.1464 0.142661 0.139504 0.135234 0.130237 0.125522 0.12034 0.116386 0.111458 0.112612 0.112453 0.111295 0.110704 0.107823 0.106045 0.103515 0.0992345 0.0974952 0.0903423 0.0862008 0.0820591 0.0797846 0.0778919 0.0744687 0.0714184 0.0687487 0.0674303 0.0677555 0.065653 0.0638148 0.0614191 0.0594273 0.0586069 0.0573138 0.0562525 0.0545688 0.0532801 0.0503606 0.0477698 0.0451473 0.0421902 0.0396019 0.0373791 0.0359067 0.0341947 0.032777 0.0318891 0.0311804 0.0306058 0.0295089 0.0283204 0.0267368 0.025433 0.0239995 0.022489 0.0211964 0.0197069 0.0182473 0.0170784 0.0160656 0.0150499 0.0141099 0.0133864 0.0128705 0.0123167 0.0115377 0.010469 0.00909187 0.00764493 0.00616881 0.00430873 0.00234319 0.000458512
285.54 0.00025 0.00629818 0.0326784 0.0803374 0.126019 0.145528 0.161464 0.170405 0.168394 0.165049 0.163708 0.167269 0.167408 0.164278 0.161118 0.158399 0.153592 0.154686 0.151845 0.152732 0.154929 0.156001 0.156891 0.156253 0.154 0.150811 0.147568 0.147159 0.146706 0.143113 0.139818 0.135485 0.130317 0.125532 0.12012 0.116263 0.11122 0.112206 0.111965 0.110799 0.110111 0.10727 0.105539 0.103113 0.0988229 0.097191 0.0901318 0.0859777 0.0818133 0.0796467 0.0777016 0.0743301 0.0713078 0.0686097 0.0673832 0.0678152 0.0657354 0.0639718 0.061565 0.0594826 0.0586859 0.0574089 0.0562846 0.0545917 0.053263 0.0503677 0.0477669 0.0451399 0.0421968 0.0395722 0.0373246 0.0358587 0.0341646 0.0327296 0.0318232 0.0311158 0.0305499 0.0294684 0.0282865 0.026704 0.0253915 0.0239556 0.0224405 0.0211582 0.0196845 0.0182333 0.0170702 0.0160607 0.0150429 0.0140982 0.0133655 0.0128492 0.0123006 0.0115302 0.0104735 0.00909823 0.00764423 0.00616677 0.00430663 0.00234066 0.000457746
285.5425 0.00025 0.00629885 0.0326804 0.0802542 0.125429 0.144896 0.160856 0.170656 0.168778 0.165579 0.16411 0.167088 0.16732 0.164128 0.160889 0.158539 0.153724 0.155484 0.152657 0.153208 0.155507 0.156415 0.157108 0.156167 0.153982 0.150671 0.147452 0.147048 0.146967 0.143551 0.140124 0.135726 0.130422 0.125559 0.119904 0.116162 0.110993 0.11179 0.111482 0.110326 0.109514 0.106724 0.105038 0.102734 0.0984183 0.0968565 0.0899306 0.0857574 0.0815694 0.0795098 0.077502 0.0741918 0.0711892 0.0684705 0.0673294 0.0678609 0.0658175 0.0641262 0.0617144 0.0595442 0.0587649 0.0575082 0.0563194 0.0546158 0.0532453 0.0503722 0.0477647 0.045131 0.0422044 0.039547 0.037271 0.0358094 0.0341343 0.0326844 0.031759 0.0310512 0.0304928 0.0294262 0.0282523 0.0266717 0.0253504 0.0239121 0.0223926 0.0211193 0.0196612 0.0182197 0.0170619 0.0160551 0.0150356 0.0140869 0.0133451 0.0128281 0.0122846 0.0115223 0.0104776 0.0091047 0.00764387 0.00616489 0.00430462 0.00233817 0.000456979
285.545 0.00025 0.0062962 0.0326949 0.0801595 0.124877 0.144318 0.160287 0.170872 0.169131 0.166074 0.164579 0.166906 0.167216 0.164006 0.16064 0.158704 0.153882 0.156176 0.153515 0.153658 0.156068 0.156837 0.157317 0.156056 0.153967 0.150577 0.147325 0.146953 0.147177 0.143964 0.140423 0.135959 0.130554 0.125599 0.119707 0.11608 0.110776 0.111367 0.111008 0.109883 0.108917 0.106179 0.104538 0.102372 0.098028 0.0964912 0.0897408 0.085545 0.0813328 0.0793741 0.077293 0.0740534 0.0710649 0.0683304 0.0672705 0.0678906 0.0658991 0.0642767 0.0618654 0.0596127 0.0588457 0.0576122 0.0563578 0.054641 0.0532273 0.0503727 0.0477636 0.0451221 0.0422128 0.0395267 0.0372181 0.035759 0.0341045 0.0326413 0.0316971 0.030987 0.0304352 0.0293822 0.0282176 0.0266397 0.0253095 0.023869 0.0223455 0.0210801 0.0196371 0.0182063 0.0170535 0.0160491 0.0150278 0.0140758 0.0133251 0.012807 0.0122685 0.011514 0.0104811 0.00911123 0.00764382 0.00616321 0.0043027 0.00233573 0.000456211
285.5475 0.00025 0.00629049 0.0327235 0.0800348 0.124371 0.143805 0.159793 0.171047 0.16945 0.166519 0.165119 0.166733 0.167088 0.163905 0.160388 0.158887 0.154112 0.156748 0.154408 0.154101 0.156605 0.157275 0.157527 0.155917 0.153946 0.150535 0.147177 0.146885 0.147333 0.144347 0.140712 0.136186 0.130714 0.12565 0.119535 0.116015 0.110567 0.110944 0.110542 0.109462 0.108324 0.105637 0.104043 0.102022 0.0976535 0.0960935 0.0895576 0.0853402 0.0811009 0.0792377 0.0770749 0.0739126 0.0709328 0.0681903 0.0672074 0.0679038 0.0659805 0.0644226 0.0620191 0.0596887 0.0589275 0.0577198 0.0564012 0.0546653 0.0532097 0.0503714 0.0477631 0.0451131 0.0422213 0.0395116 0.0371669 0.0357073 0.0340747 0.0326 0.0316379 0.0309233 0.030377 0.0293363 0.0281823 0.0266083 0.0252693 0.0238264 0.0222991 0.0210405 0.0196123 0.0181931 0.0170451 0.0160425 0.0150195 0.0140651 0.0133056 0.0127861 0.0122525 0.0115052 0.0104839 0.00911774 0.00764406 0.00616169 0.00430084 0.00233332 0.000455452
285.55 0.00025 0.00628572 0.0327606 0.0798801 0.123909 0.14337 0.159405 0.171189 0.169742 0.166894 0.165703 0.166571 0.166924 0.163821 0.160155 0.159062 0.154443 0.157214 0.155316 0.154552 0.157101 0.15772 0.157732 0.155758 0.153916 0.150552 0.147009 0.146846 0.147436 0.144694 0.140994 0.136407 0.130901 0.125704 0.119398 0.115963 0.110369 0.11052 0.110086 0.109063 0.107741 0.105098 0.103553 0.101685 0.0973001 0.0956663 0.0893766 0.0851387 0.080874 0.0791014 0.0768508 0.0737708 0.0707923 0.0680488 0.0671414 0.0679021 0.0660623 0.0645642 0.062173 0.0597702 0.0590089 0.0578288 0.0564478 0.0546902 0.0531954 0.0503684 0.0477625 0.0451047 0.0422295 0.0395018 0.0371181 0.0356545 0.0340451 0.0325611 0.0315818 0.0308603 0.0303185 0.0292886 0.0281461 0.0265774 0.0252293 0.0237841 0.0222534 0.0210007 0.0195866 0.01818 0.0170367 0.0160354 0.0150108 0.0140546 0.0132866 0.0127652 0.0122365 0.011496 0.0104862 0.00912429 0.00764464 0.00616037 0.00429909 0.00233096 0.0004547
285.5525 0.00025 0.00628051 0.0328011 0.0796907 0.12348 0.143017 0.159161 0.171312 0.170017 0.167202 0.166301 0.166454 0.166734 0.163749 0.159955 0.159197 0.154873 0.157596 0.156207 0.155032 0.15755 0.158165 0.157932 0.155592 0.15387 0.150631 0.146828 0.146836 0.147488 0.144999 0.141269 0.136627 0.131116 0.125762 0.119307 0.115917 0.11018 0.110099 0.109638 0.108677 0.107174 0.104556 0.103068 0.101357 0.0969674 0.095214 0.0891975 0.0849432 0.0806558 0.0789612 0.0766207 0.073629 0.0706458 0.0679086 0.0670707 0.067882 0.0661433 0.064702 0.0623291 0.0598572 0.0590917 0.0579383 0.0564997 0.0547147 0.0531832 0.0503639 0.0477618 0.0450981 0.042237 0.0394964 0.0370713 0.0355998 0.034015 0.0325232 0.0315285 0.0307978 0.0302596 0.0292391 0.0281089 0.0265467 0.0251899 0.0237425 0.0222086 0.0209607 0.0195601 0.0181669 0.0170283 0.0160279 0.0150015 0.0140443 0.0132682 0.0127446 0.0122205 0.0114864 0.0104879 0.00913078 0.00764552 0.00615923 0.00429739 0.00232866 0.000453952
285.555 0.00025 0.00627623 0.0328456 0.0794774 0.123065 0.142747 0.159054 0.171405 0.17028 0.167454 0.166877 0.166399 0.166525 0.16368 0.159815 0.159282 0.155401 0.157928 0.157053 0.155559 0.157955 0.158609 0.158126 0.15544 0.153807 0.15077 0.146648 0.146851 0.147502 0.145244 0.141536 0.136849 0.131359 0.125827 0.119263 0.115879 0.110001 0.109683 0.109204 0.108303 0.106628 0.104016 0.102589 0.101035 0.0966569 0.0947404 0.0890147 0.0847546 0.0804488 0.0788181 0.0763855 0.073486 0.0704941 0.0677678 0.0669981 0.0678463 0.0662244 0.064836 0.0624865 0.0599493 0.0591737 0.058047 0.0565561 0.0547379 0.053173 0.0503574 0.0477612 0.0450937 0.0422437 0.0394963 0.0370279 0.035544 0.0339848 0.0324866 0.0314783 0.0307359 0.0302003 0.0291878 0.0280708 0.0265164 0.0251509 0.0237011 0.0221645 0.0209205 0.0195329 0.0181539 0.0170201 0.01602 0.0149916 0.0140341 0.0132503 0.0127242 0.0122046 0.0114764 0.010489 0.00913723 0.00764671 0.00615829 0.00429584 0.00232643 0.000453211
285.5575 0.00025 0.00627442 0.032896 0.0792582 0.122676 0.142569 0.159072 0.171463 0.170564 0.16767 0.167388 0.166454 0.166319 0.163613 0.159741 0.159315 0.156005 0.158246 0.157831 0.156139 0.158317 0.159036 0.158298 0.155317 0.153728 0.150958 0.146477 0.146874 0.147489 0.145426 0.141787 0.137078 0.131622 0.125899 0.119267 0.115847 0.109838 0.109279 0.10879 0.107939 0.106111 0.103481 0.102117 0.100712 0.0963655 0.0942546 0.0888259 0.0845731 0.0802521 0.0786702 0.0761455 0.0733393 0.0703374 0.0676286 0.0669233 0.0677936 0.0663033 0.0649639 0.0626449 0.0600474 0.059255 0.0581537 0.0566182 0.0547599 0.0531657 0.0503492 0.0477585 0.04509 0.0422486 0.0395006 0.0369884 0.0354871 0.0339543 0.032451 0.031431 0.0306746 0.0301409 0.0291348 0.0280314 0.0264866 0.0251123 0.0236601 0.0221211 0.0208803 0.019505 0.0181408 0.017012 0.0160117 0.0149811 0.014024 0.0132329 0.012704 0.0121888 0.0114661 0.0104894 0.00914352 0.00764815 0.00615752 0.00429433 0.00232421 0.000452478
285.56 0.00025 0.00627584 0.0329457 0.0790437 0.122314 0.142499 0.159197 0.17149 0.170865 0.167871 0.167805 0.16663 0.166138 0.16355 0.159734 0.159307 0.156663 0.158577 0.158537 0.156771 0.158645 0.159437 0.158434 0.15524 0.153643 0.15118 0.146336 0.146896 0.147466 0.145541 0.142014 0.137321 0.131901 0.125988 0.119319 0.115821 0.109694 0.108885 0.108396 0.107584 0.105623 0.102953 0.101653 0.100391 0.0960911 0.0937608 0.0886237 0.0843931 0.0800675 0.0785187 0.0759034 0.0731901 0.0701783 0.0674919 0.0668447 0.0677252 0.0663776 0.0650871 0.0628025 0.0601492 0.0593348 0.0582574 0.0566847 0.0547799 0.053161 0.0503407 0.0477556 0.0450889 0.0422514 0.039509 0.0369533 0.0354292 0.0339234 0.0324159 0.031387 0.0306149 0.0300816 0.0290804 0.0279908 0.0264569 0.0250741 0.0236196 0.0220786 0.0208402 0.0194764 0.0181275 0.0170039 0.0160031 0.01497 0.0140139 0.0132161 0.0126839 0.0121731 0.0114555 0.0104893 0.00914971 0.0076499 0.006157 0.00429295 0.00232207 0.000451754
285.5625 0.00025 0.00627947 0.032999 0.0788409 0.122001 0.142555 0.159366 0.171471 0.171172 0.168077 0.168111 0.166937 0.166004 0.163502 0.15979 0.159289 0.157355 0.158935 0.159169 0.157443 0.158964 0.159812 0.158526 0.155213 0.153559 0.151419 0.146231 0.146898 0.147436 0.145591 0.142208 0.137587 0.132188 0.126095 0.119408 0.115802 0.109578 0.108506 0.108024 0.107231 0.105166 0.102437 0.101195 0.100068 0.0958311 0.09327 0.0884084 0.084217 0.0798944 0.0783614 0.0756589 0.0730389 0.0700168 0.0673576 0.0667646 0.067643 0.0664484 0.0652045 0.0629585 0.0602547 0.0594152 0.0583593 0.0567576 0.0547991 0.0531593 0.0503322 0.0477518 0.0450897 0.0422528 0.0395206 0.0369231 0.0353709 0.0338923 0.0323817 0.0313463 0.030556 0.0300222 0.0290246 0.0279487 0.0264273 0.0250364 0.0235795 0.0220367 0.0207999 0.0194472 0.0181139 0.0169959 0.0159943 0.0149581 0.0140037 0.0131999 0.012664 0.0121574 0.0114447 0.0104884 0.0091557 0.00765193 0.00615667 0.00429167 0.00232001 0.000451045
285.565 0.00025 0.00628424 0.0330512 0.0786495 0.121741 0.142739 0.159531 0.17142 0.171471 0.168314 0.168309 0.167361 0.165927 0.163491 0.159895 0.159271 0.158057 0.159334 0.159735 0.158132 0.159272 0.160161 0.158567 0.155241 0.153485 0.151656 0.14617 0.146887 0.147408 0.14559 0.142355 0.137884 0.132478 0.126224 0.11953 0.115794 0.10949 0.108144 0.107679 0.106882 0.104742 0.10194 0.100747 0.0997383 0.0955816 0.0927876 0.0881805 0.0840419 0.0797334 0.0781979 0.0754135 0.0728853 0.0698529 0.0672255 0.0666806 0.0675505 0.0665135 0.0653165 0.0631138 0.0603646 0.0594954 0.0584573 0.0568351 0.0548166 0.0531603 0.0503237 0.0477468 0.0450928 0.0422533 0.0395357 0.0368987 0.0353122 0.0338605 0.0323481 0.0313087 0.0304991 0.0299633 0.0289677 0.0279052 0.0263977 0.024999 0.0235398 0.0219957 0.0207599 0.0194174 0.0181002 0.0169881 0.0159854 0.0149457 0.0139933 0.0131842 0.0126444 0.012142 0.0114336 0.010487 0.0091615 0.00765417 0.00615652 0.00429051 0.00231802 0.000450347
285.5675 0.00025 0.00628529 0.0331037 0.0784658 0.121535 0.143038 0.159638 0.171323 0.171749 0.168615 0.168416 0.167871 0.165918 0.163527 0.160036 0.159274 0.158747 0.159777 0.160243 0.158813 0.159577 0.160484 0.158561 0.155319 0.153428 0.151878 0.146157 0.146858 0.147378 0.145548 0.142447 0.138209 0.13276 0.126382 0.119677 0.115798 0.109435 0.1078 0.10736 0.106538 0.104348 0.101465 0.100309 0.0994022 0.0953355 0.0923173 0.0879411 0.0838723 0.0795876 0.0780298 0.0751664 0.0727279 0.0696867 0.0670964 0.0665947 0.0674485 0.0665719 0.0654228 0.0632683 0.0604786 0.0595741 0.0585503 0.0569175 0.054832 0.0531632 0.0503154 0.0477408 0.0450982 0.042252 0.0395527 0.0368793 0.0352532 0.0338278 0.0323143 0.0312738 0.0304437 0.0299048 0.0289099 0.0278601 0.0263679 0.024962 0.0235006 0.0219556 0.0207201 0.0193873 0.0180861 0.0169804 0.0159764 0.0149326 0.0139828 0.0131691 0.012625 0.0121266 0.0114222 0.0104849 0.00916705 0.00765662 0.00615658 0.00428944 0.00231608 0.000449656
285.57 0.00025 0.00628169 0.0331569 0.0782859 0.121395 0.143436 0.159656 0.17117 0.17198 0.168985 0.168459 0.168422 0.165965 0.163617 0.160202 0.159313 0.159412 0.16027 0.160711 0.159465 0.159876 0.160784 0.158512 0.155446 0.153399 0.152075 0.146194 0.146823 0.147341 0.145489 0.142486 0.138556 0.133039 0.126573 0.119841 0.115816 0.109412 0.107478 0.107073 0.106198 0.103985 0.101017 0.0998795 0.0990573 0.0950914 0.0918654 0.0876877 0.0837001 0.0794539 0.0778564 0.0749173 0.0725676 0.0695207 0.0669727 0.066506 0.0673379 0.0666209 0.0655233 0.0634212 0.0605963 0.0596517 0.0586391 0.0570042 0.0548474 0.0531677 0.0503084 0.0477332 0.0451049 0.0422501 0.0395707 0.0368662 0.035194 0.0337942 0.0322813 0.0312422 0.0303905 0.0298465 0.0288512 0.0278133 0.0263377 0.0249254 0.0234616 0.0219163 0.0206803 0.0193567 0.0180717 0.0169726 0.0159674 0.0149189 0.013972 0.0131546 0.012606 0.0121114 0.0114106 0.0104823 0.00917236 0.00765931 0.00615689 0.00428854 0.00231424 0.000448975
285.5725 0.00025 0.00627067 0.0332094 0.078101 0.121321 0.143879 0.159562 0.170949 0.172153 0.169413 0.168466 0.168982 0.16608 0.163764 0.16039 0.159403 0.160036 0.16081 0.161148 0.160059 0.160162 0.161059 0.158426 0.155603 0.153399 0.152239 0.146282 0.146784 0.147285 0.14542 0.142472 0.138911 0.133315 0.126792 0.12002 0.115853 0.109422 0.107183 0.106814 0.105862 0.103652 0.100602 0.0994621 0.0987069 0.0948458 0.0914336 0.0874227 0.0835261 0.0793327 0.0776793 0.07467 0.072405 0.0693533 0.0668525 0.0664143 0.0672215 0.0666615 0.0656174 0.0635704 0.060718 0.0597274 0.0587217 0.0570946 0.0548615 0.0531744 0.0503046 0.0477249 0.0451137 0.0422484 0.0395897 0.0368594 0.0351357 0.0337592 0.0322484 0.0312129 0.0303397 0.0297886 0.0287917 0.0277651 0.0263072 0.0248892 0.0234232 0.0218778 0.0206409 0.0193258 0.018057 0.016965 0.0159583 0.0149047 0.0139609 0.0131408 0.0125872 0.0120963 0.0113989 0.010479 0.00917741 0.00766218 0.0061574 0.00428776 0.00231247 0.000448312
285.575 0.00025 0.00625939 0.0332589 0.0779204 0.121326 0.144338 0.159368 0.170659 0.172277 0.169877 0.168468 0.169527 0.166248 0.163956 0.160602 0.159549 0.160604 0.161387 0.161581 0.160588 0.160422 0.161297 0.158323 0.155787 0.153435 0.15236 0.146422 0.146763 0.147209 0.145354 0.142415 0.139264 0.133588 0.127043 0.120209 0.115912 0.109464 0.106916 0.106583 0.10553 0.103344 0.100216 0.0990584 0.0983527 0.0946007 0.0910253 0.0871505 0.0833484 0.0792203 0.0775 0.0744228 0.0722396 0.0691849 0.0667362 0.06632 0.0670997 0.0666927 0.0657062 0.0637154 0.0608429 0.0598021 0.058799 0.0571871 0.0548766 0.0531822 0.0503015 0.047714 0.0451233 0.0422465 0.0396081 0.0368592 0.0350784 0.0337227 0.0322157 0.0311858 0.0302912 0.0297312 0.0287318 0.0277153 0.0262762 0.0248533 0.0233851 0.0218402 0.0206016 0.0192946 0.0180418 0.0169573 0.0159493 0.01489 0.0139493 0.0131273 0.0125688 0.0120812 0.0113869 0.0104751 0.00918213 0.00766519 0.00615809 0.00428709 0.00231077 0.000447651