285.5025 0.00025 -5.0886e-06 -0.00110199 -0.00577791 -0.00562295 -0.00201112 0.00257491 0.00603949 0.00878119 0.0125555 0.021092 0.0167471 0.0176509 0.0187972 0.0165422 0.0168822 0.0174413 0.0163226 0.0138188 0.008736 0.00521015 0.000428189 -0.000445518 -0.00150071 0.00020961 8.54067e-06 0.000776379 -0.00252223 -0.00569125 -0.00629305 -0.00709298 -0.00896259 -0.00747413 -0.00691427 -0.00430515 -0.00395612 -0.00217342 -0.00109239 -0.000223749 0.00214923 0.00295139 0.00433195 0.00624546 0.00686891 0.00840126 0.00838645 0.00736267 0.00797342 0.00760353 0.0080028 0.00720617 0.00699244 0.00684463 0.00695864 0.00672045 0.00685666 0.00630092 0.00600216 0.00508644 0.00553812 0.00557242 0.00591218 0.00619002 0.00662455 0.00638749 0.00551221 0.00502373 0.00438789 0.00427622 0.0040928 0.00383714 0.00342461 0.0031712 0.00319109 0.00334239 0.00335319 0.0031986 0.00302874 0.00287239 0.00264819 0.00264063 0.0026793 0.00277624 0.00266475 0.00236447 0.00214361 0.00173841 0.00136751 0.00105752 0.00093373 0.000861877 0.000882923 0.000806743 0.000720565 0.00048661 0.0002935 0.000192843 0.000134207 4.41165e-05 1.31191e-05 2.08358e-06
285.505 0.00025 -6.22652e-06 -0.00116494 -0.00590045 -0.00618339 -0.00198059 0.00319094 0.00570601 0.00883175 0.0121563 0.0208052 0.0168941 0.0173891 0.0195797 0.0173625 0.0171006 0.0177271 0.016379 0.0137835 0.0089373 0.00558426 0.000380931 -0.000446036 -0.00131198 0.000904357 0.000529281 0.00124927 -0.00172094 -0.00539251 -0.005541 -0.00654537 -0.00869396 -0.00729955 -0.00661087 -0.00410126 -0.0039938 -0.00219179 -0.00123538 -0.000455038 0.00208055 0.00313661 0.00433674 0.00609545 0.00692457 0.00845042 0.00830109 0.00723511 0.00772223 0.00741294 0.00783261 0.00702157 0.00690907 0.00682646 0.00699217 0.00677879 0.00691352 0.00637502 0.00607854 0.00507471 0.00552638 0.00555573 0.00586508 0.00611066 0.00652675 0.00638741 0.00550342 0.0050173 0.00438578 0.00422801 0.0040784 0.00383816 0.00343992 0.0031535 0.0031593 0.00331278 0.0033418 0.00320268 0.00302345 0.00286431 0.00264062 0.00262832 0.00266244 0.00276097 0.00266159 0.00236409 0.00214395 0.00174883 0.00137774 0.00106447 0.000933882 0.000860273 0.000880237 0.000806368 0.000725545 0.00049515 0.000298751 0.000194576 0.000134945 4.43933e-05 1.30701e-05 2.06411e-06
285.5075 0.00025 -6.35833e-06 -0.00123504 -0.00597141 -0.00676023 -0.00194347 0.00381025 0.00532668 0.00889748 0.0119002 0.0201018 0.017345 0.0171474 0.0201301 0.0184453 0.0173602 0.018001 0.0165205 0.0136115 0.00906779 0.00586613 0.000442498 -0.000460266 -0.00112924 0.00153701 0.00102229 0.00167145 -0.000842754 -0.00494555 -0.00482188 -0.00595987 -0.00843067 -0.00709543 -0.00630584 -0.00390199 -0.00398747 -0.00219848 -0.00136702 -0.000673994 0.00198834 0.00332042 0.00433566 0.0059578 0.00696679 0.00851639 0.00822337 0.00711241 0.00747766 0.00721699 0.00766167 0.006829 0.00681978 0.00678838 0.00702038 0.00684427 0.00696367 0.00644785 0.0061563 0.00506649 0.00551592 0.00554067 0.0058147 0.00603639 0.00642416 0.00638154 0.00549419 0.00500766 0.00438783 0.00418123 0.00405949 0.00383623 0.00345612 0.00313947 0.00312776 0.00328227 0.00332698 0.00320627 0.00301931 0.00285703 0.00263357 0.00261632 0.00264606 0.00274545 0.00265771 0.0023641 0.00214353 0.00175833 0.0013878 0.00107182 0.000934421 0.000858738 0.000877444 0.00080562 0.000730003 0.000503671 0.000304258 0.000196449 0.00013573 4.4701e-05 1.30265e-05 2.04593e-06
285.51 0.00025 -5.64027e-06 -0.00130385 -0.0059992 -0.00733047 -0.00182313 0.00439734 0.00497127 0.00889381 0.0118376 0.0190575 0.0179266 0.0170585 0.0204105 0.019767 0.0176659 0.0182871 0.0167513 0.0133395 0.00915125 0.00602294 0.000591485 -0.000502085 -0.00093461 0.00208709 0.00147989 0.00204182 8.54456e-05 -0.00432925 -0.00415229 -0.00534387 -0.00815884 -0.00686288 -0.00600848 -0.00370754 -0.00393094 -0.0021966 -0.00148607 -0.000871996 0.00188275 0.00348995 0.00433064 0.00583661 0.00698906 0.00859456 0.00815181 0.00699381 0.00724251 0.00702067 0.00748994 0.00662547 0.00672382 0.00673072 0.00704032 0.00691503 0.0070079 0.00651948 0.00623445 0.00506275 0.00550686 0.00552852 0.00576207 0.00596742 0.00631951 0.00636977 0.00548489 0.00499513 0.00439322 0.00413714 0.00403638 0.00383149 0.00347271 0.00312919 0.00309705 0.00325157 0.00330916 0.00320874 0.00301613 0.00285045 0.00262706 0.00260473 0.00263004 0.00272948 0.00265303 0.00236454 0.0021425 0.00176679 0.00139758 0.00107952 0.000935393 0.000857276 0.000874572 0.000804531 0.000733948 0.000512131 0.000309985 0.000198487 0.000136576 4.5035e-05 1.2992e-05 2.02962e-06
285.5125 0.00025 -3.13307e-06 -0.00136554 -0.0059984 -0.00786967 -0.00160047 0.00491558 0.00474438 0.00874607 0.0119629 0.0178168 0.0184367 0.0171763 0.0204733 0.0212199 0.0180241 0.0185965 0.0170571 0.0130041 0.00919089 0.006063 0.000800544 -0.000563598 -0.000711015 0.00253588 0.00189733 0.00236911 0.00102788 -0.00354562 -0.00353906 -0.00471041 -0.00785773 -0.00659538 -0.005715 -0.0035139 -0.00382727 -0.00220127 -0.00160002 -0.00104309 0.00177212 0.00363243 0.00431909 0.00573745 0.00699227 0.00867372 0.00808477 0.00688112 0.0070209 0.00682503 0.00731538 0.00641562 0.00662553 0.00665518 0.00705077 0.00698716 0.00704718 0.00659007 0.00631269 0.00506402 0.00549741 0.00551864 0.0057068 0.00590192 0.00621387 0.00635148 0.00547556 0.00497969 0.00440026 0.00409677 0.00400927 0.00382387 0.00348929 0.00312292 0.00306704 0.00322014 0.00328855 0.00320971 0.00301375 0.00284454 0.002621 0.00259347 0.00261449 0.00271326 0.00264751 0.0023653 0.00214102 0.00177422 0.00140708 0.00108756 0.000936828 0.000855903 0.000871636 0.000803145 0.00073737 0.000520495 0.000315935 0.000200673 0.000137467 4.53917e-05 1.29628e-05 2.01389e-06
285.515 0.00025 3.38639e-07 -0.00142377 -0.00601595 -0.00836276 -0.00130011 0.00529516 0.00469975 0.0084444 0.0122028 0.0165142 0.0187151 0.0174684 0.0204251 0.0225902 0.0184423 0.018949 0.0174127 0.0126574 0.00917429 0.00600412 0.00103326 -0.000635174 -0.000459989 0.00288827 0.00228756 0.00268134 0.00195089 -0.002596 -0.00297727 -0.00407923 -0.00751496 -0.00629288 -0.00543033 -0.00332553 -0.00366906 -0.0022097 -0.00170671 -0.00117926 0.00166182 0.00373601 0.00429732 0.00566366 0.00697864 0.00874455 0.00802473 0.00677576 0.0068122 0.00663248 0.00713703 0.00620046 0.00652486 0.00656418 0.00705106 0.00706058 0.00708293 0.00665975 0.00639024 0.00507153 0.00548873 0.00551214 0.00565135 0.00583969 0.0061084 0.00632776 0.0054671 0.00496213 0.00440795 0.00406021 0.00397825 0.00381276 0.00350489 0.00312021 0.00303814 0.00318837 0.00326561 0.00320875 0.00301222 0.00283941 0.00261543 0.00258261 0.00259944 0.00269676 0.0026411 0.00236628 0.00213924 0.00178067 0.00141625 0.00109586 0.000938706 0.000854594 0.000868639 0.000801465 0.000740285 0.000528746 0.000322123 0.000203033 0.000138413 4.5779e-05 1.29388e-05 1.99939e-06
285.5175 0.00025 4.08083e-06 -0.00147746 -0.00607144 -0.00881227 -0.00099863 0.00545717 0.00487958 0.00803414 0.0124505 0.0152659 0.0187247 0.0178567 0.0204076 0.0237069 0.0189616 0.0193323 0.017783 0.0123381 0.00909735 0.00585513 0.00126482 -0.000692803 -0.000185091 0.00316158 0.00265545 0.00300437 0.00282433 -0.00149748 -0.00244421 -0.00346612 -0.00711718 -0.00595087 -0.00514604 -0.00313343 -0.00345938 -0.00222971 -0.00181272 -0.00128166 0.00155464 0.00380073 0.00427114 0.0056118 0.00694432 0.0087948 0.00797517 0.00667757 0.0066127 0.00644605 0.00695545 0.00598216 0.00642213 0.00645996 0.00703943 0.00713007 0.00711436 0.00672815 0.00646569 0.0050863 0.00548052 0.00550771 0.00559526 0.00578011 0.0060039 0.00629716 0.00545887 0.00494287 0.00441573 0.00402871 0.00394427 0.00379805 0.00351876 0.00312117 0.00301112 0.00315628 0.00324052 0.0032054 0.00301124 0.00283519 0.00261052 0.00257211 0.00258486 0.00268009 0.00263383 0.0023674 0.00213717 0.00178601 0.00142506 0.00110439 0.000941065 0.000853389 0.000865622 0.000799508 0.000742676 0.000536833 0.000328506 0.000205547 0.000139405 4.61898e-05 1.29206e-05 1.98593e-06
285.52 0.00025 7.69354e-06 -0.00152612 -0.00618918 -0.00923986 -0.000743319 0.00537624 0.00529049 0.00757532 0.0126078 0.0141388 0.0185255 0.0182379 0.0205275 0.0244488 0.019632 0.0197515 0.0181436 0.0120684 0.00897191 0.00561588 0.00148205 -0.000723833 0.000100466 0.00338731 0.00300975 0.00335134 0.00362299 -0.000288946 -0.00192013 -0.00287488 -0.00665694 -0.00556378 -0.00485601 -0.00293655 -0.00320893 -0.00226332 -0.00191614 -0.00134318 0.001456 0.00382793 0.0042362 0.00558433 0.00689578 0.00881641 0.00793555 0.00658534 0.006425 0.00626885 0.0067683 0.00576366 0.00631986 0.0063455 0.0070134 0.00719248 0.00714277 0.00679571 0.006538 0.00510795 0.00547331 0.00550607 0.00554024 0.00572277 0.00590249 0.00626101 0.00545101 0.00492195 0.00442221 0.00400255 0.0039082 0.00378034 0.00353104 0.00312525 0.00298622 0.00312392 0.00321387 0.0031996 0.00301055 0.0028317 0.00260605 0.00256192 0.00257069 0.00266322 0.0026257 0.00236852 0.00213502 0.00179035 0.00143345 0.00111304 0.000943879 0.000852277 0.00086257 0.000797294 0.000744541 0.000544735 0.000335093 0.000208221 0.000140447 4.663e-05 1.29113e-05 1.97369e-06
285.5225 0.00025 1.06141e-05 -0.00157378 -0.00636844 -0.00966839 -0.000560322 0.00508474 0.00590904 0.00713894 0.0126 0.0131677 0.0182044 0.0185243 0.020831 0.024804 0.0204628 0.0201764 0.0184679 0.0118527 0.00882894 0.0053117 0.00166906 -0.000709888 0.000383487 0.0035816 0.00337072 0.00373256 0.00433166 0.000985455 -0.00137738 -0.00230884 -0.00613259 -0.00513019 -0.004557 -0.00273302 -0.00292793 -0.00230859 -0.00201776 -0.00136547 0.00136304 0.00382311 0.00419516 0.00557932 0.00683459 0.00879797 0.00790688 0.00650375 0.00624622 0.00609832 0.00657519 0.00554584 0.00621657 0.00622406 0.00697486 0.00724525 0.00716966 0.00686069 0.00660596 0.00513725 0.00546626 0.00550579 0.00548757 0.00566743 0.00580454 0.00621968 0.0054429 0.00490104 0.00442724 0.00398116 0.00386959 0.00375913 0.00354115 0.0031319 0.0029632 0.00309146 0.00318593 0.00319105 0.0030099 0.002829 0.00260198 0.00255206 0.00255716 0.00264631 0.00261665 0.00236957 0.00213286 0.00179366 0.00144139 0.0011218 0.000947158 0.000851283 0.000859506 0.00079483 0.00074589 0.00055243 0.000341872 0.000211065 0.00014155 4.70974e-05 1.29111e-05 1.96285e-06
285.525 0.00025 1.15061e-05 -0.00162208 -0.00661907 -0.0101147 -0.000465021 0.00464411 0.00665641 0.00680121 0.0124414 0.0123581 0.0178104 0.0186486 0.0212722 0.0248722 0.0214012 0.0206032 0.0187495 0.0116954 0.00869508 0.00496914 0.00178953 -0.000623521 0.00067048 0.00376268 0.00374673 0.00414474 0.00495152 0.00227682 -0.000792368 -0.00176191 -0.00554779 -0.00464268 -0.00424393 -0.00251351 -0.00262312 -0.00236008 -0.00211688 -0.00134904 0.00127867 0.00379422 0.00414638 0.00559312 0.0067655 0.00873268 0.0078878 0.00643412 0.0060796 0.00593391 0.00637334 0.00532976 0.00611011 0.00609799 0.00692532 0.00728506 0.00719653 0.00692477 0.00666991 0.00517323 0.00545914 0.00550668 0.00543758 0.00561303 0.00571068 0.00617303 0.00543447 0.00488059 0.00442979 0.00396499 0.00382981 0.00373495 0.00354897 0.00314085 0.00294299 0.00305904 0.00315696 0.0031798 0.00300903 0.00282714 0.00259865 0.00254265 0.00254409 0.00262943 0.00260683 0.00237044 0.00213086 0.001796 0.00144879 0.00113061 0.000950936 0.000850439 0.000856468 0.000792153 0.000746743 0.00055989 0.000348822 0.000214083 0.000142711 4.75897e-05 1.2917e-05 1.95286e-06
285.5275 0.00025 1.06293e-05 -0.00168017 -0.0069381 -0.0105676 -0.000452397 0.0041437 0.00737765 0.00662544 0.0121915 0.0117089 0.0173976 0.0186205 0.0217633 0.0247983 0.0223235 0.0210234 0.0189882 0.0115939 0.00858847 0.00464813 0.00183739 -0.000461985 0.000963396 0.00394295 0.00415361 0.00457899 0.00548917 0.00353729 -0.000149543 -0.00121852 -0.00490941 -0.00409841 -0.00391315 -0.00227319 -0.00230639 -0.00241482 -0.00221041 -0.00129306 0.00120417 0.00374899 0.00410024 0.00562198 0.00669107 0.00861804 0.00787538 0.00637685 0.00592228 0.00577434 0.00616517 0.0051219 0.00600376 0.00597088 0.00686705 0.00730829 0.00722156 0.00698578 0.0067307 0.00521633 0.00545224 0.00550879 0.00539057 0.00555889 0.00562164 0.00612223 0.00542498 0.00485977 0.00442959 0.00395379 0.00378951 0.00370798 0.00355404 0.00315107 0.00292537 0.00302699 0.00312733 0.00316581 0.00300761 0.00282608 0.0025958 0.00253353 0.00253145 0.00261254 0.00259621 0.002371 0.00212903 0.00179746 0.00145562 0.00113943 0.000955194 0.000849697 0.000853422 0.000789272 0.000747108 0.00056709 0.000355923 0.000217286 0.000143948 4.81107e-05 1.29308e-05 1.94366e-06
285.53 0.00025 6.92317e-06 -0.00173332 -0.00731101 -0.0109716 -0.000531502 0.00365541 0.00794626 0.0066401 0.0119317 0.0112097 0.0169933 0.0184984 0.0221935 0.0247103 0.0230934 0.0214146 0.0192094 0.011531 0.00851534 0.00439274 0.00181408 -0.000243773 0.00127278 0.00413497 0.00459697 0.00502913 0.00596048 0.00472692 0.000563766 -0.000664214 -0.00422027 -0.00349703 -0.0035611 -0.00201263 -0.00199171 -0.00246538 -0.002294 -0.00120567 0.00113763 0.00369281 0.0040596 0.00566438 0.00662295 0.00845507 0.007863 0.00633159 0.00577824 0.005618 0.00594878 0.00492189 0.00589672 0.00584395 0.00680221 0.00731196 0.00724504 0.00704365 0.00678831 0.00526527 0.00544482 0.00551155 0.00534772 0.00550574 0.00553706 0.00606808 0.00541532 0.00484076 0.00442657 0.00394681 0.00374896 0.00367782 0.00355622 0.00316264 0.00291079 0.00299527 0.00309713 0.0031494 0.00300532 0.0028256 0.00259353 0.00252496 0.00251938 0.00259578 0.00258487 0.00237115 0.0021274 0.00179812 0.00146188 0.00114817 0.00095991 0.000849119 0.000850382 0.000786212 0.000747001 0.000573992 0.000363165 0.000220662 0.000145246 4.86538e-05 1.29515e-05 1.93598e-06
285.5325 0.00025 1.01059e-07 -0.00177339 -0.00770641 -0.011253 -0.000682578 0.00318965 0.00825707 0.00682074 0.0117233 0.0108432 0.0165815 0.018358 0.0225134 0.0246711 0.0236252 0.021735 0.019441 0.0114924 0.00847649 0.00424943 0.00174048 -9.31956e-07 0.00160634 0.00435747 0.00506763 0.00547294 0.00638055 0.0057992 0.00133372 -7.90685e-05 -0.00347866 -0.00284076 -0.00318714 -0.0017251 -0.00168534 -0.00251037 -0.00236308 -0.0010907 0.00108378 0.00362896 0.00403141 0.00571283 0.0065633 0.00824431 0.00784606 0.00629862 0.00564988 0.00546358 0.00572495 0.00472978 0.00578952 0.00571833 0.00673049 0.00729515 0.00726693 0.00709715 0.00684317 0.00531957 0.00543695 0.00551458 0.00530945 0.00545514 0.00545783 0.00601111 0.00540521 0.00482306 0.00442045 0.0039439 0.0037092 0.00364489 0.00355527 0.00317475 0.00289923 0.00296416 0.00306679 0.00313061 0.00300186 0.00282576 0.0025918 0.00251677 0.00250778 0.0025792 0.00257291 0.00237079 0.00212607 0.00179803 0.00146745 0.00115683 0.000965057 0.000848678 0.000847362 0.000782988 0.000746443 0.000580596 0.000370514 0.000224195 0.000146602 4.92254e-05 1.29835e-05 1.92952e-06
285.535 0.00025 -8.36297e-06 -0.00180154 -0.00810334 -0.0113534 -0.000915423 0.00272432 0.00827213 0.00710446 0.0115877 0.0105883 0.0161503 0.0182435 0.0227119 0.0246718 0.0239189 0.021926 0.0196887 0.0114611 0.00845213 0.00423966 0.00164703 0.000245785 0.00196371 0.00463933 0.00554863 0.00589527 0.00675667 0.00672193 0.00214913 0.00055799 -0.00268369 -0.00213853 -0.00279057 -0.00141435 -0.00139103 -0.00254553 -0.00241321 -0.000956055 0.00104804 0.00355417 0.00401866 0.00575851 0.00651521 0.00799017 0.00781903 0.00628023 0.00553822 0.00530991 0.00549776 0.00454538 0.00568161 0.00559637 0.00665494 0.00725869 0.00728684 0.00714652 0.00689509 0.00537752 0.00542908 0.00551734 0.00527618 0.00540693 0.00538374 0.00595287 0.00539392 0.00480781 0.00441174 0.00394421 0.00367081 0.00360892 0.00355144 0.00318713 0.0028909 0.00293398 0.00303606 0.00310964 0.00299726 0.00282646 0.00259048 0.00250893 0.00249657 0.0025628 0.00256036 0.00236982 0.00212499 0.00179736 0.00147236 0.00116529 0.000970632 0.000848443 0.000844372 0.000779618 0.000745449 0.000586852 0.00037796 0.000227906 0.000148032 4.98245e-05 1.30242e-05 1.92437e-06
285.5375 0.00025 -1.74041e-05 -0.00181724 -0.00846525 -0.0112433 -0.00120507 0.00224566 0.00802763 0.00740323 0.0115234 0.0104252 0.0156833 0.018181 0.0228125 0.0246847 0.0240276 0.0219198 0.0199198 0.0114407 0.00843609 0.00436465 0.00156618 0.000484905 0.00232697 0.00501384 0.00602797 0.00629286 0.00709863 0.00746695 0.00299061 0.00125732 -0.00182706 -0.00139506 -0.00236543 -0.00107887 -0.00110808 -0.00256672 -0.00243588 -0.00081002 0.00103114 0.0034706 0.00402756 0.00579916 0.0064866 0.00770571 0.00777859 0.00627263 0.00543951 0.00515245 0.00526971 0.00437151 0.00557329 0.00547718 0.00657547 0.00720161 0.00730266 0.00718996 0.0069436 0.00543788 0.00542101 0.00551914 0.00524843 0.00536154 0.00531503 0.00589408 0.00538139 0.00479368 0.00440038 0.00394711 0.00363483 0.0035707 0.00354474 0.0031994 0.00288545 0.00290515 0.00300551 0.00308677 0.00299121 0.00282753 0.0025896 0.0025016 0.00248588 0.00254653 0.00254718 0.00236818 0.00212414 0.00179618 0.00147659 0.00117355 0.000976616 0.000848347 0.00084139 0.000776118 0.00074402 0.000592747 0.000385491 0.000231801 0.000149532 5.04537e-05 1.30763e-05 1.92013e-06
285.54 0.00025 -2.53545e-05 -0.00182569 -0.00874143 -0.0109431 -0.00155504 0.00173297 0.0075608 0.00763225 0.0114757 0.0103347 0.0151824 0.018184 0.02285 0.0246475 0.0240249 0.0216859 0.0200802 0.0114417 0.00841318 0.00459856 0.00152846 0.000725147 0.00268345 0.00549731 0.0064958 0.00667068 0.00740668 0.00803299 0.00384916 0.00201985 -0.000904794 -0.000616946 -0.00189888 -0.000716674 -0.000841205 -0.00257008 -0.00243013 -0.000662401 0.00103958 0.00337624 0.00404956 0.00583144 0.0064778 0.00739992 0.00771752 0.0062744 0.00535693 0.00499215 0.00504176 0.00420586 0.00546454 0.00536042 0.00649351 0.00712487 0.00731341 0.00722936 0.00698902 0.00549931 0.00541364 0.00551991 0.00522585 0.00532014 0.00525135 0.00583406 0.00536762 0.00478186 0.0043872 0.00395177 0.00360189 0.00353016 0.00353503 0.00321136 0.0028829 0.00287771 0.0029749 0.0030622 0.00298353 0.0028288 0.0025893 0.00249477 0.0024756 0.00253055 0.00253359 0.00236583 0.00212349 0.0017946 0.00148015 0.00118156 0.000982963 0.000848466 0.000838464 0.000772498 0.000742201 0.000598259 0.000393054 0.000235858 0.000151104 5.11033e-05 1.31371e-05 1.9171e-06
285.5425 0.00025 -3.06218e-05 -0.00183381 -0.00890823 -0.0104935 -0.00194304 0.00119562 0.00692757 0.0077575 0.0114269 0.010316 0.0146655 0.0182202 0.022855 0.0245129 0.0239601 0.0212642 0.020104 0.0114899 0.00836524 0.00489086 0.00156442 0.000974531 0.00302027 0.00608344 0.00694055 0.00701683 0.00767486 0.00841476 0.00471137 0.00283722 7.783e-05 0.00018629 -0.00138322 -0.000332892 -0.000582292 -0.00255151 -0.00239667 -0.000516534 0.00107267 0.00327172 0.00408482 0.00585723 0.00648908 0.00708522 0.00762894 0.00628329 0.00528963 0.00483261 0.00482043 0.00404758 0.00535591 0.00524799 0.00640995 0.00703139 0.00731705 0.00726397 0.00703102 0.00556189 0.00540655 0.00551996 0.00520828 0.00528244 0.00519185 0.00577446 0.0053525 0.00477175 0.00437224 0.00395675 0.00357277 0.00348799 0.0035218 0.00322249 0.00288324 0.00285234 0.00294462 0.00303621 0.00297411 0.00283003 0.00258934 0.00248833 0.00246567 0.00251482 0.00251962 0.00236265 0.0021229 0.00179273 0.00148299 0.00118922 0.000989666 0.000848818 0.000835564 0.000768784 0.000740022 0.000603387 0.000400652 0.000240092 0.000152747 5.17728e-05 1.32084e-05 1.91494e-06
285.545 0.00025 -3.35976e-05 -0.00182819 -0.00895026 -0.00994242 -0.00235841 0.000677863 0.00620078 0.00776668 0.0113497 0.0103745 0.0141646 0.018272 0.0228414 0.0242731 0.0238539 0.0207249 0.0199239 0.0116036 0.00826832 0.00519192 0.00169956 0.00123381 0.00334587 0.00675247 0.00737367 0.00734279 0.00790963 0.00862479 0.00556802 0.00370307 0.00111918 0.00100548 -0.000817234 6.5352e-05 -0.000329893 -0.00250917 -0.00233935 -0.000375842 0.00112925 0.00316479 0.00412659 0.00588044 0.00651762 0.006777 0.00751531 0.00629849 0.005238 0.00467085 0.00460619 0.00389693 0.00524883 0.00513882 0.00632299 0.00692251 0.00731104 0.00729367 0.00706781 0.00562418 0.00540028 0.00551995 0.00519551 0.00524879 0.00513704 0.00571665 0.00533721 0.00476386 0.00435589 0.00396183 0.00354806 0.00344452 0.00350508 0.00323291 0.00288615 0.00282885 0.00291434 0.00300904 0.00296288 0.00283103 0.00258978 0.00248234 0.0024562 0.00249936 0.00250533 0.00235863 0.0021224 0.00179068 0.00148513 0.00119651 0.000996694 0.000849392 0.000832699 0.000764985 0.000737499 0.000608123 0.000408279 0.000244507 0.000154465 5.24663e-05 1.32901e-05 1.91344e-06
285.5475 0.00025 -3.40066e-05 -0.0018229 -0.00887855 -0.0093327 -0.00277812 0.000191011 0.00542767 0.00768058 0.0112703 0.0105432 0.0137248 0.0182978 0.0228034 0.0239508 0.0236899 0.0201602 0.0195105 0.0117811 0.00814006 0.00545371 0.00194582 0.00151708 0.00368018 0.00746807 0.00780897 0.00764565 0.00811787 0.00868597 0.00639974 0.00459577 0.00220632 0.00183747 -0.000193757 0.000478391 -7.01177e-05 -0.00243623 -0.00225637 -0.000237332 0.00120624 0.00305689 0.0041611 0.00590233 0.00655432 0.00648465 0.00737208 0.00631903 0.00520038 0.00450592 0.00439797 0.00375545 0.00514377 0.00503407 0.00623409 0.00680042 0.00729476 0.00731867 0.00709943 0.00568521 0.00539486 0.00551984 0.00518727 0.0052204 0.00508692 0.0056609 0.00532059 0.00475743 0.00433848 0.00396593 0.00352779 0.0034007 0.00348472 0.00324243 0.00289117 0.00280781 0.00288456 0.00298095 0.00294982 0.00283169 0.00259074 0.00247688 0.00244709 0.00248421 0.00249084 0.00235376 0.00212186 0.00178848 0.00148661 0.00120337 0.001004 0.000850201 0.000829861 0.000761092 0.00073466 0.000612444 0.000415862 0.000249068 0.000156265 5.31864e-05 1.33769e-05 1.91302e-06
285.55 0.00025 -3.4048e-05 -0.00180463 -0.00870283 -0.00870727 -0.00319182 -0.000233155 0.00463929 0.00753631 0.0111765 0.0108383 0.0134058 0.0182698 0.0227461 0.0235895 0.0234473 0.0196403 0.0188813 0.0119958 0.00799677 0.00563457 0.00228399 0.00183067 0.00403722 0.00818487 0.00826442 0.00792564 0.00829862 0.00863262 0.00718614 0.00551392 0.00332358 0.0026748 0.000488685 0.000904937 0.000205909 -0.0023288 -0.00214581 -0.000100886 0.00129948 0.00295531 0.00418019 0.00592828 0.00659655 0.00621684 0.00720132 0.00633419 0.00517587 0.00434131 0.00419849 0.00362328 0.00503977 0.00493274 0.00614104 0.00666647 0.00726752 0.00733949 0.00712644 0.00574372 0.00539017 0.00551942 0.00518303 0.00519714 0.00504183 0.00560873 0.00530292 0.00475191 0.00432102 0.00396844 0.00351215 0.00335733 0.00346055 0.00325124 0.00289866 0.00278947 0.00285516 0.00295228 0.00293525 0.00283192 0.00259205 0.00247188 0.00243842 0.00246933 0.00247605 0.00234801 0.00212128 0.00178627 0.00148749 0.00120973 0.00101151 0.000851263 0.000827075 0.000757125 0.000731501 0.000616354 0.000423397 0.00025377 0.000158133 5.39268e-05 1.34757e-05 1.91323e-06
285.5525 0.00025 -3.2474e-05 -0.00178346 -0.00846433 -0.00811563 -0.00357583 -0.000592163 0.00383906 0.00739074 0.0110589 0.0112436 0.0132494 0.018136 0.0226485 0.0232197 0.0231059 0.019207 0.0180809 0.0121991 0.00787207 0.00572278 0.00268599 0.00219387 0.00444395 0.00886727 0.008768 0.00819273 0.00846847 0.00852044 0.00789655 0.00645666 0.00445446 0.00351137 0.00122819 0.00134195 0.000508695 -0.00218388 -0.00200887 3.46319e-05 0.00140485 0.00286753 0.00417417 0.00595134 0.00663707 0.00598245 0.00700847 0.0063478 0.00516522 0.00417942 0.00400681 0.00349893 0.00493537 0.00483491 0.00604388 0.00652337 0.00722973 0.0073556 0.00714764 0.00579892 0.00538597 0.00551899 0.00518277 0.0051793 0.00500079 0.00555902 0.00528467 0.00474866 0.00430439 0.00396955 0.00350104 0.00331509 0.00343265 0.00325878 0.00290761 0.00277386 0.00282627 0.00292311 0.00291902 0.00283142 0.00259364 0.00246731 0.00243024 0.00245478 0.00246104 0.00234133 0.00212051 0.00178406 0.00148779 0.00121552 0.00101918 0.000852577 0.000824325 0.000753088 0.000728063 0.000619828 0.000430854 0.000258614 0.000160075 5.46954e-05 1.35858e-05 1.91407e-06
285.555 0.00025 -3.05415e-05 -0.00175555 -0.00820443 -0.00760318 -0.00390915 -0.000926846 0.0029787 0.00727608 0.0109062 0.0117419 0.0132769 0.0178852 0.0224993 0.0228638 0.0226703 0.0188661 0.0171875 0.0123421 0.0077882 0.00572722 0.00310552 0.00262092 0.00491612 0.00947144 0.00932822 0.00845113 0.00862202 0.00840683 0.00849903 0.00742897 0.00558003 0.00434988 0.00201698 0.00178106 0.000844211 -0.0020034 -0.00184541 0.000170493 0.00151273 0.00279782 0.00414621 0.00597347 0.00666968 0.00578696 0.00679805 0.00634951 0.00516468 0.00402242 0.00382346 0.00338361 0.00483071 0.00474048 0.00594287 0.00637296 0.00718155 0.00736513 0.00716151 0.00584935 0.00538176 0.00551801 0.00518547 0.00516628 0.00496503 0.00551337 0.00526501 0.00474611 0.00428791 0.00396888 0.0034947 0.00327406 0.00340107 0.0032651 0.00291791 0.00276136 0.00279809 0.00289362 0.00290115 0.00283002 0.0025955 0.0024631 0.00242251 0.0024406 0.0024459 0.00233392 0.00211962 0.00178193 0.00148761 0.00122073 0.00102702 0.000854168 0.000821623 0.000749006 0.000724372 0.000622882 0.000438236 0.000263618 0.000162108 5.54887e-05 1.37037e-05 1.91595e-06
285.5575 0.00025 -2.87647e-05 -0.00172266 -0.00793315 -0.00719318 -0.00419228 -0.00130345 0.00206244 0.00723554 0.0106669 0.0122725 0.0134882 0.0175374 0.0222654 0.0225454 0.0221643 0.0185942 0.0162718 0.0123836 0.00776858 0.00568388 0.003508 0.0031164 0.00546439 0.00998008 0.00994417 0.00871572 0.00876062 0.00835022 0.00896668 0.00842586 0.0066822 0.00519269 0.00284877 0.0022204 0.00122009 -0.00179265 -0.00165558 0.00030863 0.00162021 0.0027537 0.00409082 0.00598403 0.00669105 0.00563393 0.00657597 0.00633663 0.00517122 0.00387089 0.00364885 0.00327907 0.00472627 0.00464967 0.0058385 0.00621749 0.00712297 0.00736858 0.00716899 0.00589448 0.00537734 0.00551727 0.00519031 0.00515903 0.00493472 0.00547222 0.00524448 0.00474395 0.00427263 0.00396614 0.00349289 0.00323584 0.00336627 0.00326976 0.00292941 0.00275188 0.00277051 0.00286412 0.00288197 0.00282757 0.00259757 0.00245947 0.00241522 0.00242675 0.00243069 0.00232563 0.00211835 0.00177977 0.00148696 0.00122534 0.00103493 0.000856041 0.00081899 0.000744914 0.000720453 0.000625507 0.000445493 0.000268746 0.000164219 5.62965e-05 1.38281e-05 1.91857e-06
285.56 0.00025 -2.68154e-05 -0.00168972 -0.0076814 -0.00687775 -0.0044485 -0.00177789 0.00109345 0.00728373 0.0103294 0.0127678 0.0138481 0.0171634 0.0219228 0.0222719 0.0216051 0.0183552 0.0153808 0.012297 0.00781074 0.00564852 0.00386561 0.00365973 0.00609209 0.0103925 0.0105997 0.00900766 0.00888568 0.00838226 0.00928806 0.00944648 0.00776889 0.00604819 0.00371175 0.00266142 0.00164263 -0.00155223 -0.00144367 0.000449179 0.00172287 0.00273747 0.00401706 0.00598389 0.006698 0.00552036 0.00635411 0.00630856 0.00518212 0.00372865 0.00348278 0.00318323 0.00462004 0.00456253 0.00572999 0.00605839 0.0070544 0.00736425 0.00717024 0.00593503 0.00537385 0.00551442 0.00519687 0.00515823 0.00491003 0.00543611 0.00522339 0.00474258 0.00425866 0.00396112 0.00349518 0.00320111 0.00332883 0.00327289 0.00294175 0.00274593 0.0027439 0.00283461 0.00286138 0.00282384 0.00259971 0.00245629 0.00240836 0.00241328 0.00241548 0.00231662 0.00211675 0.00177768 0.00148592 0.00122927 0.00104287 0.000858214 0.000816406 0.000740778 0.000716306 0.000627711 0.000452609 0.000273992 0.000166415 5.71353e-05 1.39642e-05 1.92149e-06
285.5625 0.00025 -2.47392e-05 -0.00165931 -0.00745816 -0.00665515 -0.0047378 -0.0023492 0.000119143 0.00742379 0.00989947 0.0131336 0.0143217 0.0168312 0.0214651 0.0220328 0.021008 0.0181181 0.0145525 0.0120762 0.00789833 0.0056653 0.00417661 0.00424898 0.00679434 0.0107308 0.0112678 0.00934532 0.00899567 0.00850904 0.009482 0.0104722 0.00884068 0.00691854 0.0045977 0.0031007 0.00210494 -0.00128268 -0.00121218 0.000589614 0.00181698 0.00274704 0.00393179 0.00596491 0.00668821 0.00544257 0.00613717 0.00626059 0.00519446 0.00359668 0.00332467 0.00309652 0.00451327 0.00447934 0.00561901 0.00589797 0.00697653 0.00735087 0.00716578 0.00597007 0.0053717 0.00551085 0.00520455 0.00516379 0.0048909 0.00540489 0.00520128 0.0047411 0.00424615 0.00395459 0.00350072 0.00316958 0.00328896 0.00327403 0.00295478 0.00274326 0.00271825 0.00280524 0.00283964 0.00281879 0.00260173 0.00245347 0.0024019 0.00240015 0.00240016 0.00230681 0.00211479 0.00177568 0.00148457 0.00123254 0.00105079 0.000860671 0.000813874 0.00073664 0.000711988 0.000629491 0.000459557 0.00027934 0.000168699 5.8004e-05 1.41098e-05 1.92479e-06
285.565 0.00025 -2.27043e-05 -0.00162647 -0.00725771 -0.00651247 -0.00508941 -0.00301637 -0.000809692 0.00763803 0.00944725 0.0133089 0.0148784 0.0165749 0.0209132 0.0218127 0.0203567 0.0178536 0.0138036 0.0117188 0.00800376 0.00575856 0.00445553 0.00486627 0.00754075 0.0110198 0.0119239 0.00974967 0.00910296 0.00871522 0.00958375 0.0114729 0.0099116 0.00779628 0.00549575 0.00355512 0.00261138 -0.000983078 -0.000964411 0.00072985 0.00190292 0.00277799 0.00384133 0.00592338 0.0066633 0.00539729 0.00593407 0.00619395 0.00520547 0.00347838 0.00317551 0.00301692 0.00440506 0.00440021 0.00550541 0.00573774 0.00689218 0.00732873 0.00715589 0.00599984 0.00537056 0.00550478 0.00521358 0.00517557 0.00487675 0.00537851 0.00517819 0.00473973 0.00423637 0.00394711 0.00350946 0.0031431 0.0032474 0.00327295 0.00296801 0.00274374 0.00269416 0.00277653 0.00281712 0.00281256 0.00260371 0.00245107 0.00239584 0.00238749 0.00238492 0.00229636 0.00211235 0.00177373 0.00148305 0.00123515 0.00105861 0.000863418 0.000811401 0.000732474 0.000707502 0.000630882 0.000466335 0.000284784 0.000171064 5.88953e-05 1.42621e-05 1.92839e-06